# vtk DataFile Version 2.0
FEM, Created by Wutzow
ASCII
DATASET UNSTRUCTURED_GRID
POINTS 25 Float64
0 0 0
3 0 0
6 0 0
9.23021 -0.0379485 0
1.45982 1.43846 0
4.52298 1.52666 0
7.55735 1.48932 0
0 3 0
2.99065 3.04464 0
5.97993 3.02949 0
8.9665 3.14296 0
1.5316 4.5 0
4.56585 4.5 0
7.46004 4.5 0
0 6 0
2.99065 5.95536 0
5.97993 5.97051 0
8.9665 5.85704 0
1.45982 7.56154 0
4.52298 7.47334 0
7.55735 7.51068 0
0 9 0
3 9 0
6 9 0
9.23021 9.03795 0

CELLS 4 44
10 0 3 12 1 2 6 9 8 4 5
10 3 24 12 10 17 20 16 9 6 13
10 24 21 12 23 22 18 15 16 20 19
10 21 0 12 14 7 4 8 15 18 11

CELL_TYPES 4
69
69
69
69

CELL_DATA 4
POINT_DATA 25
VECTORS Y Float64
0 0 0.0
3 0 0.0
6 0 0.0
9.23021 -0.0379485 0.0
1.45982 1.43846 0.0
4.52298 1.52666 0.0
7.55735 1.48932 0.0
0 3 0.0
2.99065 3.04464 0.0
5.97993 3.02949 0.0
8.9665 3.14296 0.0
1.5316 4.5 0.0
4.56585 4.5 0.0
7.46004 4.5 0.0
0 6 0.0
2.99065 5.95536 0.0
5.97993 5.97051 0.0
8.9665 5.85704 0.0
1.45982 7.56154 0.0
4.52298 7.47334 0.0
7.55735 7.51068 0.0
0 9 0.0
3 9 0.0
6 9 0.0
9.23021 9.03795 0.0

CELL_DATA 4
POINT_DATA 25
VECTORS U Float64
0 0 0.0
0 0 0.0
0 0 0.0
0.23021 -0.0379485 0.0
-0.0401777 -0.0615376 0.0
0.0229768 0.0266619 0.0
0.0573465 -0.0106821 0.0
0 0 0.0
-0.00935144 0.0446424 0.0
-0.0200665 0.0294852 0.0
-0.0335001 0.142955 0.0
0.031599 0 0.0
0.0658501 -2.66454e-15 0.0
-0.0399645 -4.44089e-15 0.0
0 0 0.0
-0.00935144 -0.0446424 0.0
-0.0200665 -0.0294852 0.0
-0.0335001 -0.142955 0.0
-0.0401777 0.0615376 0.0
0.0229768 -0.0266619 0.0
0.0573465 0.0106821 0.0
0 0 0.0
0 0 0.0
0 0 0.0
0.23021 0.0379485 0.0

CELL_DATA 4
POINT_DATA 25
TENSORS E Float64
0.00554707 -0.00324216  0.00
-0.00324216 -0.0165353  0.00
0.00 0.00  0.00

0.024285 0.00315903  0.00
0.00315903 -0.0559469  0.00
0.00 0.00  0.00

0.0367592 -0.0131008  0.00
-0.0131008 -0.0514763  0.00
0.00 0.00  0.00

3.09146e-06 -0.00320974  0.00
-0.00320974 0.00809924  0.00
0.00 0.00  0.00

0.0120125 0.000152995  0.00
0.000152995 -0.0310712  0.00
0.00 0.00  0.00

0.00640006 0.00188313  0.00
0.00188313 0.0332374  0.00
0.00 0.00  0.00

0.0142321 -4.10788e-06  0.00
-4.10788e-06 0.0222337  0.00
0.00 0.00  0.00

-0.0164522 -0.00146444  0.00
-0.00146444 0.0207247  0.00
0.00 0.00  0.00

0.00567806 -0.00624081  0.00
-0.00624081 -0.0452801  0.00
0.00 0.00  0.00

-0.00549885 -0.00619592  0.00
-0.00619592 0.0172232  0.00
0.00 0.00  0.00

-0.0241398 0.0145934  0.00
0.0145934 0.07359  0.00
0.00 0.00  0.00

-0.00302207 -5.84979e-16  0.00
-5.84979e-16 0.0225563  0.00
0.00 0.00  0.00

0.0097335 7.3352e-16  0.00
7.3352e-16 -0.00535143  0.00
0.00 0.00  0.00

0.000253621 2.22388e-16  0.00
2.22388e-16 -0.0449296  0.00
0.00 0.00  0.00

-0.0164522 0.00146444  0.00
0.00146444 0.0207247  0.00
0.00 0.00  0.00

0.00567806 0.00624081  0.00
0.00624081 -0.0452801  0.00
0.00 0.00  0.00

-0.00549885 0.00619592  0.00
0.00619592 0.0172232  0.00
0.00 0.00  0.00

-0.0241398 -0.0145934  0.00
-0.0145934 0.07359  0.00
0.00 0.00  0.00

0.0120125 -0.000152995  0.00
-0.000152995 -0.0310712  0.00
0.00 0.00  0.00

0.00640006 -0.00188313  0.00
-0.00188313 0.0332374  0.00
0.00 0.00  0.00

0.0142321 4.10788e-06  0.00
4.10788e-06 0.0222337  0.00
0.00 0.00  0.00

0.00554707 0.00324216  0.00
0.00324216 -0.0165353  0.00
0.00 0.00  0.00

0.024285 -0.00315903  0.00
-0.00315903 -0.0559469  0.00
0.00 0.00  0.00

0.0367592 0.0131008  0.00
0.0131008 -0.0514763  0.00
0.00 0.00  0.00

3.09146e-06 0.00320974  0.00
0.00320974 0.00809924  0.00
0.00 0.00  0.00


CELL_DATA 4
POINT_DATA 25
TENSORS S Float64
0.00554707 -0.00324216  0.00
-0.00324216 -0.0165353  0.00
0.00 0.00  0.00

0.024285 0.00315903  0.00
0.00315903 -0.0559469  0.00
0.00 0.00  0.00

0.0367592 -0.0131008  0.00
-0.0131008 -0.0514763  0.00
0.00 0.00  0.00

3.09146e-06 -0.00320974  0.00
-0.00320974 0.00809924  0.00
0.00 0.00  0.00

0.0120125 0.000152995  0.00
0.000152995 -0.0310712  0.00
0.00 0.00  0.00

0.00640006 0.00188313  0.00
0.00188313 0.0332374  0.00
0.00 0.00  0.00

0.0142321 -4.10788e-06  0.00
-4.10788e-06 0.0222337  0.00
0.00 0.00  0.00

-0.0164522 -0.00146444  0.00
-0.00146444 0.0207247  0.00
0.00 0.00  0.00

0.00567806 -0.00624081  0.00
-0.00624081 -0.0452801  0.00
0.00 0.00  0.00

-0.00549885 -0.00619592  0.00
-0.00619592 0.0172232  0.00
0.00 0.00  0.00

-0.0241398 0.0145934  0.00
0.0145934 0.07359  0.00
0.00 0.00  0.00

-0.00302207 -5.84979e-16  0.00
-5.84979e-16 0.0225563  0.00
0.00 0.00  0.00

0.0097335 7.3352e-16  0.00
7.3352e-16 -0.00535143  0.00
0.00 0.00  0.00

0.000253621 2.22388e-16  0.00
2.22388e-16 -0.0449296  0.00
0.00 0.00  0.00

-0.0164522 0.00146444  0.00
0.00146444 0.0207247  0.00
0.00 0.00  0.00

0.00567806 0.00624081  0.00
0.00624081 -0.0452801  0.00
0.00 0.00  0.00

-0.00549885 0.00619592  0.00
0.00619592 0.0172232  0.00
0.00 0.00  0.00

-0.0241398 -0.0145934  0.00
-0.0145934 0.07359  0.00
0.00 0.00  0.00

0.0120125 -0.000152995  0.00
-0.000152995 -0.0310712  0.00
0.00 0.00  0.00

0.00640006 -0.00188313  0.00
-0.00188313 0.0332374  0.00
0.00 0.00  0.00

0.0142321 4.10788e-06  0.00
4.10788e-06 0.0222337  0.00
0.00 0.00  0.00

0.00554707 0.00324216  0.00
0.00324216 -0.0165353  0.00
0.00 0.00  0.00

0.024285 -0.00315903  0.00
-0.00315903 -0.0559469  0.00
0.00 0.00  0.00

0.0367592 0.0131008  0.00
0.0131008 -0.0514763  0.00
0.00 0.00  0.00

3.09146e-06 0.00320974  0.00
0.00320974 0.00809924  0.00
0.00 0.00  0.00


CELL_DATA 4
POINT_DATA 25
SCALARS ue float
LOOKUP_TABLE default
0.000174337
-0.000603443
0.000658545
-0.000710718
5.40719e-05
0.000613936
-0.00134095
0.000357106
-3.57801e-05
-0.00109948
-0.00166539
0.000226431
-0.000560714
0.00111431
0.000357106
-3.57801e-05
-0.00109948
-0.00166539
5.40719e-05
0.000613936
-0.00134095
0.000174337
-0.000603443
0.000658545
-0.000710718

