# vtk DataFile Version 2.0
FEM, Created by Wutzow
ASCII
DATASET UNSTRUCTURED_GRID
POINTS 25 Float64
0 0 0
3 0 0
6 0 0
9.23021 -0.0379486 0
1.45982 1.43846 0
4.52298 1.52666 0
7.55735 1.48932 0
0 3 0
2.99065 3.04464 0
5.97993 3.02949 0
8.9665 3.14296 0
1.5316 4.5 0
4.56585 4.5 0
7.46003 4.5 0
0 6 0
2.99065 5.95536 0
5.97993 5.97051 0
8.9665 5.85704 0
1.45982 7.56154 0
4.52298 7.47334 0
7.55735 7.51068 0
0 9 0
3 9 0
6 9 0
9.23021 9.03795 0

CELLS 4 44
10 0 3 12 1 2 6 9 8 4 5
10 3 24 12 10 17 20 16 9 6 13
10 24 21 12 23 22 18 15 16 20 19
10 21 0 12 14 7 4 8 15 18 11

CELL_TYPES 4
69
69
69
69

CELL_DATA 4
POINT_DATA 25
VECTORS Y Float64
0 0 0.0
3 0 0.0
6 0 0.0
9.23021 -0.0379486 0.0
1.45982 1.43846 0.0
4.52298 1.52666 0.0
7.55735 1.48932 0.0
0 3 0.0
2.99065 3.04464 0.0
5.97993 3.02949 0.0
8.9665 3.14296 0.0
1.5316 4.5 0.0
4.56585 4.5 0.0
7.46003 4.5 0.0
0 6 0.0
2.99065 5.95536 0.0
5.97993 5.97051 0.0
8.9665 5.85704 0.0
1.45982 7.56154 0.0
4.52298 7.47334 0.0
7.55735 7.51068 0.0
0 9 0.0
3 9 0.0
6 9 0.0
9.23021 9.03795 0.0

CELL_DATA 4
POINT_DATA 25
VECTORS U Float64
0 0 0.0
0 0 0.0
0 0 0.0
0.230214 -0.0379486 0.0
-0.0401784 -0.0615386 0.0
0.022977 0.0266624 0.0
0.0573473 -0.0106821 0.0
0 0 0.0
-0.00935189 0.0446432 0.0
-0.0200674 0.0294859 0.0
-0.0335021 0.142959 0.0
0.0315992 -8.88178e-16 0.0
0.0658503 -3.55271e-15 0.0
-0.0399668 -2.66454e-15 0.0
0 0 0.0
-0.00935189 -0.0446432 0.0
-0.0200674 -0.0294859 0.0
-0.0335021 -0.142959 0.0
-0.0401784 0.0615386 0.0
0.022977 -0.0266624 0.0
0.0573473 0.0106821 0.0
0 0 0.0
0 0 0.0
0 0 0.0
0.230214 0.0379486 0.0

CELL_DATA 4
POINT_DATA 25
TENSORS E Float64
0.00556879 -0.00325532  0.00
-0.00325532 -0.0166063  0.00
0.00 0.00  0.00

0.0243521 0.0031737  0.00
0.0031737 -0.056105  0.00
0.00 0.00  0.00

0.0369279 -0.0131578  0.00
-0.0131578 -0.0516776  0.00
0.00 0.00  0.00

-3.44641e-05 -0.0032276  0.00
-0.0032276 0.0081719  0.00
0.00 0.00  0.00

0.012045 0.000148299  0.00
0.000148299 -0.031196  0.00
0.00 0.00  0.00

0.00642291 0.00186559  0.00
0.00186559 0.0333522  0.00
0.00 0.00  0.00

0.0142302 1.39643e-05  0.00
1.39643e-05 0.0224042  0.00
0.00 0.00  0.00

-0.0165155 -0.00148023  0.00
-0.00148023 0.0207584  0.00
0.00 0.00  0.00

0.00568274 -0.0062695  0.00
-0.0062695 -0.045446  0.00
0.00 0.00  0.00

-0.00559845 -0.00623111  0.00
-0.00623111 0.0173555  0.00
0.00 0.00  0.00

-0.0243095 0.0146786  0.00
0.0146786 0.0739437  0.00
0.00 0.00  0.00

-0.00305469 -9.90636e-16  0.00
-9.90636e-16 0.022634  0.00
0.00 0.00  0.00

0.00973781 3.6211e-16  0.00
3.6211e-16 -0.00533703  0.00
0.00 0.00  0.00

0.000172634 -3.64258e-16  0.00
-3.64258e-16 -0.0452296  0.00
0.00 0.00  0.00

-0.0165155 0.00148023  0.00
0.00148023 0.0207584  0.00
0.00 0.00  0.00

0.00568274 0.0062695  0.00
0.0062695 -0.045446  0.00
0.00 0.00  0.00

-0.00559845 0.00623111  0.00
0.00623111 0.0173555  0.00
0.00 0.00  0.00

-0.0243095 -0.0146786  0.00
-0.0146786 0.0739437  0.00
0.00 0.00  0.00

0.012045 -0.000148299  0.00
-0.000148299 -0.031196  0.00
0.00 0.00  0.00

0.00642291 -0.00186559  0.00
-0.00186559 0.0333522  0.00
0.00 0.00  0.00

0.0142302 -1.39643e-05  0.00
-1.39643e-05 0.0224042  0.00
0.00 0.00  0.00

0.00556879 0.00325532  0.00
0.00325532 -0.0166063  0.00
0.00 0.00  0.00

0.0243521 -0.0031737  0.00
-0.0031737 -0.056105  0.00
0.00 0.00  0.00

0.0369279 0.0131578  0.00
0.0131578 -0.0516776  0.00
0.00 0.00  0.00

-3.44641e-05 0.0032276  0.00
0.0032276 0.0081719  0.00
0.00 0.00  0.00


CELL_DATA 4
POINT_DATA 25
TENSORS S Float64
0.00556879 -0.00325532  0.00
-0.00325532 -0.0166063  0.00
0.00 0.00  0.00

0.0243521 0.0031737  0.00
0.0031737 -0.056105  0.00
0.00 0.00  0.00

0.0369279 -0.0131578  0.00
-0.0131578 -0.0516776  0.00
0.00 0.00  0.00

-3.44641e-05 -0.0032276  0.00
-0.0032276 0.0081719  0.00
0.00 0.00  0.00

0.012045 0.000148299  0.00
0.000148299 -0.031196  0.00
0.00 0.00  0.00

0.00642291 0.00186559  0.00
0.00186559 0.0333522  0.00
0.00 0.00  0.00

0.0142302 1.39643e-05  0.00
1.39643e-05 0.0224042  0.00
0.00 0.00  0.00

-0.0165155 -0.00148023  0.00
-0.00148023 0.0207584  0.00
0.00 0.00  0.00

0.00568274 -0.0062695  0.00
-0.0062695 -0.045446  0.00
0.00 0.00  0.00

-0.00559845 -0.00623111  0.00
-0.00623111 0.0173555  0.00
0.00 0.00  0.00

-0.0243095 0.0146786  0.00
0.0146786 0.0739437  0.00
0.00 0.00  0.00

-0.00305469 -9.90636e-16  0.00
-9.90636e-16 0.022634  0.00
0.00 0.00  0.00

0.00973781 3.6211e-16  0.00
3.6211e-16 -0.00533703  0.00
0.00 0.00  0.00

0.000172634 -3.64258e-16  0.00
-3.64258e-16 -0.0452296  0.00
0.00 0.00  0.00

-0.0165155 0.00148023  0.00
0.00148023 0.0207584  0.00
0.00 0.00  0.00

0.00568274 0.0062695  0.00
0.0062695 -0.045446  0.00
0.00 0.00  0.00

-0.00559845 0.00623111  0.00
0.00623111 0.0173555  0.00
0.00 0.00  0.00

-0.0243095 -0.0146786  0.00
-0.0146786 0.0739437  0.00
0.00 0.00  0.00

0.012045 -0.000148299  0.00
-0.000148299 -0.031196  0.00
0.00 0.00  0.00

0.00642291 -0.00186559  0.00
-0.00186559 0.0333522  0.00
0.00 0.00  0.00

0.0142302 -1.39643e-05  0.00
-1.39643e-05 0.0224042  0.00
0.00 0.00  0.00

0.00556879 0.00325532  0.00
0.00325532 -0.0166063  0.00
0.00 0.00  0.00

0.0243521 -0.0031737  0.00
-0.0031737 -0.056105  0.00
0.00 0.00  0.00

0.0369279 0.0131578  0.00
0.0131578 -0.0516776  0.00
0.00 0.00  0.00

-3.44641e-05 0.0032276  0.00
0.0032276 0.0081719  0.00
0.00 0.00  0.00


CELL_DATA 4
POINT_DATA 25
SCALARS ue float
LOOKUP_TABLE default
0.000176971
-0.000609306
0.000666781
-0.000718796
5.59446e-05
0.000618776
-0.00135654
0.000361602
-3.43861e-05
-0.00111181
-0.00168536
0.000227406
-0.000566604
0.00112851
0.000361602
-3.43861e-05
-0.00111181
-0.00168536
5.59446e-05
0.000618776
-0.00135654
0.000176971
-0.000609306
0.000666781
-0.000718796

