# vtk DataFile Version 2.0
FEM, Created by Wutzow
ASCII
DATASET UNSTRUCTURED_GRID
POINTS 25 Float64
0 0 0
3 0 0
6 0 0
9.23021 -0.0379486 0
1.45982 1.43846 0
4.52298 1.52666 0
7.55735 1.48932 0
0 3 0
2.99065 3.04464 0
5.97993 3.02949 0
8.9665 3.14296 0
1.5316 4.5 0
4.56585 4.5 0
7.46003 4.5 0
0 6 0
2.99065 5.95536 0
5.97993 5.97051 0
8.9665 5.85704 0
1.45982 7.56154 0
4.52298 7.47334 0
7.55735 7.51068 0
0 9 0
3 9 0
6 9 0
9.23021 9.03795 0

CELLS 4 44
10 0 3 12 1 2 6 9 8 4 5
10 3 24 12 10 17 20 16 9 6 13
10 24 21 12 23 22 18 15 16 20 19
10 21 0 12 14 7 4 8 15 18 11

CELL_TYPES 4
69
69
69
69

CELL_DATA 4
POINT_DATA 25
VECTORS Y Float64
0 0 0.0
3 0 0.0
6 0 0.0
9.23021 -0.0379486 0.0
1.45982 1.43846 0.0
4.52298 1.52666 0.0
7.55735 1.48932 0.0
0 3 0.0
2.99065 3.04464 0.0
5.97993 3.02949 0.0
8.9665 3.14296 0.0
1.5316 4.5 0.0
4.56585 4.5 0.0
7.46003 4.5 0.0
0 6 0.0
2.99065 5.95536 0.0
5.97993 5.97051 0.0
8.9665 5.85704 0.0
1.45982 7.56154 0.0
4.52298 7.47334 0.0
7.55735 7.51068 0.0
0 9 0.0
3 9 0.0
6 9 0.0
9.23021 9.03795 0.0

CELL_DATA 4
POINT_DATA 25
VECTORS U Float64
0 0 0.0
0 0 0.0
0 0 0.0
0.230214 -0.0379486 0.0
-0.0401784 -0.0615386 0.0
0.022977 0.0266624 0.0
0.0573473 -0.0106821 0.0
0 0 0.0
-0.00935189 0.0446432 0.0
-0.0200674 0.0294859 0.0
-0.0335021 0.142959 0.0
0.0315992 -8.88178e-16 0.0
0.0658503 -5.32907e-15 0.0
-0.0399668 -1.77636e-15 0.0
0 0 0.0
-0.00935189 -0.0446432 0.0
-0.0200674 -0.0294859 0.0
-0.0335021 -0.142959 0.0
-0.0401784 0.0615386 0.0
0.022977 -0.0266624 0.0
0.0573473 0.0106821 0.0
0 0 0.0
0 0 0.0
0 0 0.0
0.230214 0.0379486 0.0

CELL_DATA 4
POINT_DATA 25
TENSORS E Float64
0.00556889 -0.00325538  0.00
-0.00325538 -0.0166066  0.00
0.00 0.00  0.00

0.0243524 0.00317377  0.00
0.00317377 -0.0561059  0.00
0.00 0.00  0.00

0.0369286 -0.0131581  0.00
-0.0131581 -0.0516786  0.00
0.00 0.00  0.00

-3.45737e-05 -0.00322768  0.00
-0.00322768 0.00817214  0.00
0.00 0.00  0.00

0.0120452 0.000148272  0.00
0.000148272 -0.0311966  0.00
0.00 0.00  0.00

0.006423 0.00186555  0.00
0.00186555 0.0333529  0.00
0.00 0.00  0.00

0.0142303 1.40105e-05  0.00
1.40105e-05 0.0224048  0.00
0.00 0.00  0.00

-0.0165157 -0.00148031  0.00
-0.00148031 0.0207587  0.00
0.00 0.00  0.00

0.0056828 -0.00626963  0.00
-0.00626963 -0.0454469  0.00
0.00 0.00  0.00

-0.00559878 -0.00623127  0.00
-0.00623127 0.0173559  0.00
0.00 0.00  0.00

-0.02431 0.0146789  0.00
0.0146789 0.0739453  0.00
0.00 0.00  0.00

-0.00305487 -1.49552e-15  0.00
-1.49552e-15 0.0226344  0.00
0.00 0.00  0.00

0.00973788 5.1006e-16  0.00
5.1006e-16 -0.00533706  0.00
0.00 0.00  0.00

0.00017232 -8.07127e-16  0.00
-8.07127e-16 -0.0452309  0.00
0.00 0.00  0.00

-0.0165157 0.00148031  0.00
0.00148031 0.0207587  0.00
0.00 0.00  0.00

0.0056828 0.00626963  0.00
0.00626963 -0.0454469  0.00
0.00 0.00  0.00

-0.00559878 0.00623127  0.00
0.00623127 0.0173559  0.00
0.00 0.00  0.00

-0.02431 -0.0146789  0.00
-0.0146789 0.0739453  0.00
0.00 0.00  0.00

0.0120452 -0.000148272  0.00
-0.000148272 -0.0311966  0.00
0.00 0.00  0.00

0.006423 -0.00186555  0.00
-0.00186555 0.0333529  0.00
0.00 0.00  0.00

0.0142303 -1.40105e-05  0.00
-1.40105e-05 0.0224048  0.00
0.00 0.00  0.00

0.00556889 0.00325538  0.00
0.00325538 -0.0166066  0.00
0.00 0.00  0.00

0.0243524 -0.00317377  0.00
-0.00317377 -0.0561059  0.00
0.00 0.00  0.00

0.0369286 0.0131581  0.00
0.0131581 -0.0516786  0.00
0.00 0.00  0.00

-3.45737e-05 0.00322768  0.00
0.00322768 0.00817214  0.00
0.00 0.00  0.00


CELL_DATA 4
POINT_DATA 25
TENSORS S Float64
0.00556889 -0.00325538  0.00
-0.00325538 -0.0166066  0.00
0.00 0.00  0.00

0.0243524 0.00317377  0.00
0.00317377 -0.0561059  0.00
0.00 0.00  0.00

0.0369286 -0.0131581  0.00
-0.0131581 -0.0516786  0.00
0.00 0.00  0.00

-3.45737e-05 -0.00322768  0.00
-0.00322768 0.00817214  0.00
0.00 0.00  0.00

0.0120452 0.000148272  0.00
0.000148272 -0.0311966  0.00
0.00 0.00  0.00

0.006423 0.00186555  0.00
0.00186555 0.0333529  0.00
0.00 0.00  0.00

0.0142303 1.40105e-05  0.00
1.40105e-05 0.0224048  0.00
0.00 0.00  0.00

-0.0165157 -0.00148031  0.00
-0.00148031 0.0207587  0.00
0.00 0.00  0.00

0.0056828 -0.00626963  0.00
-0.00626963 -0.0454469  0.00
0.00 0.00  0.00

-0.00559878 -0.00623127  0.00
-0.00623127 0.0173559  0.00
0.00 0.00  0.00

-0.02431 0.0146789  0.00
0.0146789 0.0739453  0.00
0.00 0.00  0.00

-0.00305487 -1.49552e-15  0.00
-1.49552e-15 0.0226344  0.00
0.00 0.00  0.00

0.00973788 5.1006e-16  0.00
5.1006e-16 -0.00533706  0.00
0.00 0.00  0.00

0.00017232 -8.07127e-16  0.00
-8.07127e-16 -0.0452309  0.00
0.00 0.00  0.00

-0.0165157 0.00148031  0.00
0.00148031 0.0207587  0.00
0.00 0.00  0.00

0.0056828 0.00626963  0.00
0.00626963 -0.0454469  0.00
0.00 0.00  0.00

-0.00559878 0.00623127  0.00
0.00623127 0.0173559  0.00
0.00 0.00  0.00

-0.02431 -0.0146789  0.00
-0.0146789 0.0739453  0.00
0.00 0.00  0.00

0.0120452 -0.000148272  0.00
-0.000148272 -0.0311966  0.00
0.00 0.00  0.00

0.006423 -0.00186555  0.00
-0.00186555 0.0333529  0.00
0.00 0.00  0.00

0.0142303 -1.40105e-05  0.00
-1.40105e-05 0.0224048  0.00
0.00 0.00  0.00

0.00556889 0.00325538  0.00
0.00325538 -0.0166066  0.00
0.00 0.00  0.00

0.0243524 -0.00317377  0.00
-0.00317377 -0.0561059  0.00
0.00 0.00  0.00

0.0369286 0.0131581  0.00
0.0131581 -0.0516786  0.00
0.00 0.00  0.00

-3.45737e-05 0.00322768  0.00
0.00322768 0.00817214  0.00
0.00 0.00  0.00


CELL_DATA 4
POINT_DATA 25
SCALARS ue float
LOOKUP_TABLE default
0.000176981
-0.000609335
0.000666813
-0.000718831
5.59488e-05
0.0006188
-0.0013566
0.000361621
-3.43839e-05
-0.00111186
-0.00168544
0.000227413
-0.000566631
0.00112857
0.000361621
-3.43839e-05
-0.00111186
-0.00168544
5.59488e-05
0.0006188
-0.0013566
0.000176981
-0.000609335
0.000666813
-0.000718831

