# vtk DataFile Version 2.0
FEM, Created by Wutzow
ASCII
DATASET UNSTRUCTURED_GRID
POINTS 25 Float64
0 0 0
3 0 0
6 0 0
9.22933 -0.0379189 0
1.45995 1.43865 0
4.52294 1.52657 0
7.55714 1.48932 0
0 3 0
2.99074 3.04451 0
5.98016 3.02934 0
8.96706 3.14197 0
1.53157 4.5 0
4.56587 4.5 0
7.46065 4.5 0
0 6 0
2.99074 5.95549 0
5.98016 5.97066 0
8.96706 5.85803 0
1.45995 7.56135 0
4.52294 7.47343 0
7.55714 7.51068 0
0 9 0
3 9 0
6 9 0
9.22933 9.03792 0

CELLS 4 44
10 0 3 12 1 2 6 9 8 4 5
10 3 24 12 10 17 20 16 9 6 13
10 24 21 12 23 22 18 15 16 20 19
10 21 0 12 14 7 4 8 15 18 11

CELL_TYPES 4
69
69
69
69

CELL_DATA 4
POINT_DATA 25
VECTORS Y Float64
0 0 0.0
3 0 0.0
6 0 0.0
9.22933 -0.0379189 0.0
1.45995 1.43865 0.0
4.52294 1.52657 0.0
7.55714 1.48932 0.0
0 3 0.0
2.99074 3.04451 0.0
5.98016 3.02934 0.0
8.96706 3.14197 0.0
1.53157 4.5 0.0
4.56587 4.5 0.0
7.46065 4.5 0.0
0 6 0.0
2.99074 5.95549 0.0
5.98016 5.97066 0.0
8.96706 5.85803 0.0
1.45995 7.56135 0.0
4.52294 7.47343 0.0
7.55714 7.51068 0.0
0 9 0.0
3 9 0.0
6 9 0.0
9.22933 9.03792 0.0

CELL_DATA 4
POINT_DATA 25
VECTORS U Float64
0 0 0.0
0 0 0.0
0 0 0.0
0.229334 -0.0379189 0.0
-0.0400488 -0.0613497 0.0
0.022936 0.0265703 0.0
0.0571392 -0.0106759 0.0
0 0 0.0
-0.00925664 0.0445115 0.0
-0.0198389 0.0293365 0.0
-0.0329409 0.14197 0.0
0.0315691 0 0.0
0.0658747 -7.10543e-15 0.0
-0.0393544 -6.21725e-15 0.0
0 0 0.0
-0.00925664 -0.0445115 0.0
-0.0198389 -0.0293365 0.0
-0.0329409 -0.14197 0.0
-0.0400488 0.0613497 0.0
0.022936 -0.0265703 0.0
0.0571392 0.0106759 0.0
0 0 0.0
0 0 0.0
0 0 0.0
0.229334 0.0379189 0.0

CELL_DATA 4
POINT_DATA 25
TENSORS E Float64
0.00535734 -0.00298892  0.00
-0.00298892 -0.0154209  0.00
0.00 0.00  0.00

0.0242691 0.00325789  0.00
0.00325789 -0.0535946  0.00
0.00 0.00  0.00

0.0342484 -0.0122045  0.00
-0.0122045 -0.048419  0.00
0.00 0.00  0.00

0.00167705 -0.00279448  0.00
-0.00279448 0.00600543  0.00
0.00 0.00  0.00

0.0122786 0.000508013  0.00
0.000508013 -0.0292702  0.00
0.00 0.00  0.00

0.00593512 0.00222376  0.00
0.00222376 0.031387  0.00
0.00 0.00  0.00

0.01672 -0.000434299  0.00
-0.000434299 0.0172207  0.00
0.00 0.00  0.00

-0.0155865 -0.0012406  0.00
-0.0012406 0.0202235  0.00
0.00 0.00  0.00

0.00607553 -0.0056814  0.00
-0.0056814 -0.0425489  0.00
0.00 0.00  0.00

-0.002033 -0.00541217  0.00
-0.00541217 0.0131905  0.00
0.00 0.00  0.00

-0.019478 0.0130102  0.00
0.0130102 0.0658943  0.00
0.00 0.00  0.00

-0.00263491 -1.10403e-15  0.00
-1.10403e-15 0.0219478  0.00
0.00 0.00  0.00

0.0110397 1.79055e-16  0.00
1.79055e-16 -0.00663748  0.00
0.00 0.00  0.00

0.00152421 -5.39773e-18  0.00
-5.39773e-18 -0.0374474  0.00
0.00 0.00  0.00

-0.0155865 0.0012406  0.00
0.0012406 0.0202235  0.00
0.00 0.00  0.00

0.00607553 0.0056814  0.00
0.0056814 -0.0425489  0.00
0.00 0.00  0.00

-0.002033 0.00541217  0.00
0.00541217 0.0131905  0.00
0.00 0.00  0.00

-0.019478 -0.0130102  0.00
-0.0130102 0.0658943  0.00
0.00 0.00  0.00

0.0122786 -0.000508013  0.00
-0.000508013 -0.0292702  0.00
0.00 0.00  0.00

0.00593512 -0.00222376  0.00
-0.00222376 0.031387  0.00
0.00 0.00  0.00

0.01672 0.000434299  0.00
0.000434299 0.0172207  0.00
0.00 0.00  0.00

0.00535734 0.00298892  0.00
0.00298892 -0.0154209  0.00
0.00 0.00  0.00

0.0242691 -0.00325789  0.00
-0.00325789 -0.0535946  0.00
0.00 0.00  0.00

0.0342484 0.0122045  0.00
0.0122045 -0.048419  0.00
0.00 0.00  0.00

0.00167705 0.00279448  0.00
0.00279448 0.00600543  0.00
0.00 0.00  0.00


CELL_DATA 4
POINT_DATA 25
TENSORS S Float64
0.00535734 -0.00298892  0.00
-0.00298892 -0.0154209  0.00
0.00 0.00  0.00

0.0242691 0.00325789  0.00
0.00325789 -0.0535946  0.00
0.00 0.00  0.00

0.0342484 -0.0122045  0.00
-0.0122045 -0.048419  0.00
0.00 0.00  0.00

0.00167705 -0.00279448  0.00
-0.00279448 0.00600543  0.00
0.00 0.00  0.00

0.0122786 0.000508013  0.00
0.000508013 -0.0292702  0.00
0.00 0.00  0.00

0.00593512 0.00222376  0.00
0.00222376 0.031387  0.00
0.00 0.00  0.00

0.01672 -0.000434299  0.00
-0.000434299 0.0172207  0.00
0.00 0.00  0.00

-0.0155865 -0.0012406  0.00
-0.0012406 0.0202235  0.00
0.00 0.00  0.00

0.00607553 -0.0056814  0.00
-0.0056814 -0.0425489  0.00
0.00 0.00  0.00

-0.002033 -0.00541217  0.00
-0.00541217 0.0131905  0.00
0.00 0.00  0.00

-0.019478 0.0130102  0.00
0.0130102 0.0658943  0.00
0.00 0.00  0.00

-0.00263491 -1.10403e-15  0.00
-1.10403e-15 0.0219478  0.00
0.00 0.00  0.00

0.0110397 1.79055e-16  0.00
1.79055e-16 -0.00663748  0.00
0.00 0.00  0.00

0.00152421 -5.39773e-18  0.00
-5.39773e-18 -0.0374474  0.00
0.00 0.00  0.00

-0.0155865 0.0012406  0.00
0.0012406 0.0202235  0.00
0.00 0.00  0.00

0.00607553 0.0056814  0.00
0.0056814 -0.0425489  0.00
0.00 0.00  0.00

-0.002033 0.00541217  0.00
0.00541217 0.0131905  0.00
0.00 0.00  0.00

-0.019478 -0.0130102  0.00
-0.0130102 0.0658943  0.00
0.00 0.00  0.00

0.0122786 -0.000508013  0.00
-0.000508013 -0.0292702  0.00
0.00 0.00  0.00

0.00593512 -0.00222376  0.00
-0.00222376 0.031387  0.00
0.00 0.00  0.00

0.01672 0.000434299  0.00
0.000434299 0.0172207  0.00
0.00 0.00  0.00

0.00535734 0.00298892  0.00
0.00298892 -0.0154209  0.00
0.00 0.00  0.00

0.0242691 -0.00325789  0.00
-0.00325789 -0.0535946  0.00
0.00 0.00  0.00

0.0342484 0.0122045  0.00
0.0122045 -0.048419  0.00
0.00 0.00  0.00

0.00167705 0.00279448  0.00
0.00279448 0.00600543  0.00
0.00 0.00  0.00


CELL_DATA 4
POINT_DATA 25
SCALARS ue float
LOOKUP_TABLE default
0.00010291
-0.000484763
0.000474462
-0.000531648
-9.62008e-06
0.000536384
-0.000992109
0.000240117
-0.000108013
-0.000823481
-0.00121594
0.000227904
-0.00044001
0.000805839
0.000240117
-0.000108013
-0.000823481
-0.00121594
-9.62008e-06
0.000536384
-0.000992109
0.00010291
-0.000484763
0.000474462
-0.000531648

