# vtk DataFile Version 2.0
FEM, Created by Wutzow
ASCII
DATASET UNSTRUCTURED_GRID
POINTS 25 Float64
0 0 0
3 0 0
6 0 0
9.22528 -0.0333719 0
1.46082 1.44025 0
4.52402 1.52599 0
7.55509 1.48693 0
0 3 0
2.99235 3.04119 0
5.98533 3.02597 0
8.97954 3.12219 0
1.53312 4.5 0
4.57117 4.5 0
7.47455 4.5 0
0 6 0
2.99235 5.95881 0
5.98533 5.97403 0
8.97954 5.87781 0
1.46082 7.55975 0
4.52402 7.47401 0
7.55509 7.51307 0
0 9 0
3 9 0
6 9 0
9.22528 9.03337 0

CELLS 4 44
10 0 3 12 1 2 6 9 8 4 5
10 3 24 12 10 17 20 16 9 6 13
10 24 21 12 23 22 18 15 16 20 19
10 21 0 12 14 7 4 8 15 18 11

CELL_TYPES 4
69
69
69
69

CELL_DATA 4
POINT_DATA 25
VECTORS Y Float64
0 0 0.0
3 0 0.0
6 0 0.0
9.22528 -0.0333719 0.0
1.46082 1.44025 0.0
4.52402 1.52599 0.0
7.55509 1.48693 0.0
0 3 0.0
2.99235 3.04119 0.0
5.98533 3.02597 0.0
8.97954 3.12219 0.0
1.53312 4.5 0.0
4.57117 4.5 0.0
7.47455 4.5 0.0
0 6 0.0
2.99235 5.95881 0.0
5.98533 5.97403 0.0
8.97954 5.87781 0.0
1.46082 7.55975 0.0
4.52402 7.47401 0.0
7.55509 7.51307 0.0
0 9 0.0
3 9 0.0
6 9 0.0
9.22528 9.03337 0.0

CELL_DATA 4
POINT_DATA 25
VECTORS U Float64
0 0 0.0
0 0 0.0
0 0 0.0
0.225278 -0.0333719 0.0
-0.0391802 -0.0597546 0.0
0.0240202 0.0259934 0.0
0.0550932 -0.01307 0.0
0 0 0.0
-0.00765108 0.0411883 0.0
-0.0146697 0.0259701 0.0
-0.020456 0.122192 0.0
0.0331215 -8.88178e-16 0.0
0.0711672 -3.55271e-15 0.0
-0.0254536 -1.77636e-15 0.0
0 0 0.0
-0.00765108 -0.0411883 0.0
-0.0146697 -0.0259701 0.0
-0.020456 -0.122192 0.0
-0.0391802 0.0597546 0.0
0.0240202 -0.0259934 0.0
0.0550932 0.01307 0.0
0 0 0.0
0 0 0.0
0 0 0.0
0.225278 0.0333719 0.0

CELL_DATA 4
POINT_DATA 25
TENSORS E Float64
-1.94239e-16 7.26058e-18  0.00
7.26058e-18 1.16801e-16  0.00
0.00 0.00  0.00

-7.66853e-17 -3.76799e-17  0.00
-3.76799e-17 2.51042e-16  0.00
0.00 0.00  0.00

-3.82964e-16 -3.22554e-17  0.00
-3.22554e-17 4.37331e-16  0.00
0.00 0.00  0.00

6.73078e-17 -2.29965e-17  0.00
-2.29965e-17 1.22457e-16  0.00
0.00 0.00  0.00

-3.37734e-16 7.30456e-18  0.00
7.30456e-18 8.28855e-17  0.00
0.00 0.00  0.00

1.25495e-17 6.27475e-18  0.00
6.27475e-18 4.18317e-18  0.00
0.00 0.00  0.00

1.9892e-17 -3.11443e-17  0.00
-3.11443e-17 3.14569e-16  0.00
0.00 0.00  0.00

-2.00979e-16 4.6884e-17  0.00
4.6884e-17 -3.00654e-16  0.00
0.00 0.00  0.00

-3.57784e-16 2.12768e-17  0.00
2.12768e-17 8.01663e-17  0.00
0.00 0.00  0.00

9.77474e-17 -6.70315e-17  0.00
-6.70315e-17 1.83296e-16  0.00
0.00 0.00  0.00

3.54368e-16 -5.65836e-18  0.00
-5.65836e-18 -1.73929e-16  0.00
0.00 0.00  0.00

-1.25495e-17 -6.27475e-18  0.00
-6.27475e-18 -4.18317e-18  0.00
0.00 0.00  0.00

4.28497e-17 -1.22188e-17  0.00
-1.22188e-17 -3.36436e-17  0.00
0.00 0.00  0.00

-1.25495e-17 -6.27475e-18  0.00
-6.27475e-18 -4.18317e-18  0.00
0.00 0.00  0.00

-1.85061e-16 4.6884e-17  0.00
4.6884e-17 1.06575e-16  0.00
0.00 0.00  0.00

-6.30628e-17 2.12768e-17  0.00
2.12768e-17 -2.38327e-16  0.00
0.00 0.00  0.00

3.27941e-16 -6.70315e-17  0.00
-6.70315e-17 -1.19066e-16  0.00
0.00 0.00  0.00

3.44141e-16 -5.65836e-18  0.00
-5.65836e-18 1.11337e-16  0.00
0.00 0.00  0.00

-1.76044e-17 7.30456e-18  0.00
7.30456e-18 -3.67783e-16  0.00
0.00 0.00  0.00

1.25495e-17 6.27475e-18  0.00
6.27475e-18 4.18317e-18  0.00
0.00 0.00  0.00

5.65866e-16 -3.11443e-17  0.00
-3.11443e-17 -1.92561e-16  0.00
0.00 0.00  0.00

-1.92586e-17 7.26058e-18  0.00
7.26058e-18 -1.56392e-16  0.00
0.00 0.00  0.00

1.58617e-16 -3.76799e-17  0.00
-3.76799e-17 -4.07462e-16  0.00
0.00 0.00  0.00

1.68855e-16 -3.22554e-17  0.00
-3.22554e-17 -1.71805e-16  0.00
0.00 0.00  0.00

1.95685e-16 -2.29965e-17  0.00
-2.29965e-17 -1.39086e-16  0.00
0.00 0.00  0.00


CELL_DATA 4
POINT_DATA 25
TENSORS S Float64
-1.94239e-16 7.26058e-18  0.00
7.26058e-18 1.16801e-16  0.00
0.00 0.00  0.00

-7.66853e-17 -3.76799e-17  0.00
-3.76799e-17 2.51042e-16  0.00
0.00 0.00  0.00

-3.82964e-16 -3.22554e-17  0.00
-3.22554e-17 4.37331e-16  0.00
0.00 0.00  0.00

6.73078e-17 -2.29965e-17  0.00
-2.29965e-17 1.22457e-16  0.00
0.00 0.00  0.00

-3.37734e-16 7.30456e-18  0.00
7.30456e-18 8.28855e-17  0.00
0.00 0.00  0.00

1.25495e-17 6.27475e-18  0.00
6.27475e-18 4.18317e-18  0.00
0.00 0.00  0.00

1.9892e-17 -3.11443e-17  0.00
-3.11443e-17 3.14569e-16  0.00
0.00 0.00  0.00

-2.00979e-16 4.6884e-17  0.00
4.6884e-17 -3.00654e-16  0.00
0.00 0.00  0.00

-3.57784e-16 2.12768e-17  0.00
2.12768e-17 8.01663e-17  0.00
0.00 0.00  0.00

9.77474e-17 -6.70315e-17  0.00
-6.70315e-17 1.83296e-16  0.00
0.00 0.00  0.00

3.54368e-16 -5.65836e-18  0.00
-5.65836e-18 -1.73929e-16  0.00
0.00 0.00  0.00

-1.25495e-17 -6.27475e-18  0.00
-6.27475e-18 -4.18317e-18  0.00
0.00 0.00  0.00

4.28497e-17 -1.22188e-17  0.00
-1.22188e-17 -3.36436e-17  0.00
0.00 0.00  0.00

-1.25495e-17 -6.27475e-18  0.00
-6.27475e-18 -4.18317e-18  0.00
0.00 0.00  0.00

-1.85061e-16 4.6884e-17  0.00
4.6884e-17 1.06575e-16  0.00
0.00 0.00  0.00

-6.30628e-17 2.12768e-17  0.00
2.12768e-17 -2.38327e-16  0.00
0.00 0.00  0.00

3.27941e-16 -6.70315e-17  0.00
-6.70315e-17 -1.19066e-16  0.00
0.00 0.00  0.00

3.44141e-16 -5.65836e-18  0.00
-5.65836e-18 1.11337e-16  0.00
0.00 0.00  0.00

-1.76044e-17 7.30456e-18  0.00
7.30456e-18 -3.67783e-16  0.00
0.00 0.00  0.00

1.25495e-17 6.27475e-18  0.00
6.27475e-18 4.18317e-18  0.00
0.00 0.00  0.00

5.65866e-16 -3.11443e-17  0.00
-3.11443e-17 -1.92561e-16  0.00
0.00 0.00  0.00

-1.92586e-17 7.26058e-18  0.00
7.26058e-18 -1.56392e-16  0.00
0.00 0.00  0.00

1.58617e-16 -3.76799e-17  0.00
-3.76799e-17 -4.07462e-16  0.00
0.00 0.00  0.00

1.68855e-16 -3.22554e-17  0.00
-3.22554e-17 -1.71805e-16  0.00
0.00 0.00  0.00

1.95685e-16 -2.29965e-17  0.00
-2.29965e-17 -1.39086e-16  0.00
0.00 0.00  0.00


CELL_DATA 4
POINT_DATA 25
SCALARS ue float
LOOKUP_TABLE default
1.05188e-32
1.29096e-32
5.01219e-32
1.26066e-32
2.56598e-32
5.80531e-34
4.12653e-32
9.69305e-33
1.82246e-32
2.47992e-32
-9.45383e-33
-5.80531e-34
3.75191e-32
-5.80531e-34
-2.11973e-32
3.28029e-32
3.84821e-32
1.39799e-32
4.70383e-32
5.80531e-34
6.5778e-32
1.99852e-32
6.11148e-32
4.80327e-32
2.14261e-32

