# vtk DataFile Version 2.0
FEM, Created by Wutzow
ASCII
DATASET UNSTRUCTURED_GRID
POINTS 10 Float64
0 0 0
3.01349 3.07733 0
0 3 0
5.81171 5.91457 0
2.95673 6.06369 0
0 6 0
9.41726 8 0
6.24733 8.89749 0
2.9207 9.05037 0
0 9 0

CELLS 1 11
10 0 6 9 1 3 7 8 5 2 4

CELL_TYPES 1
69

CELL_DATA 1
POINT_DATA 10
VECTORS Y Float64
0 0 0.0
3.01349 3.07733 0.0
0 3 0.0
5.81171 5.91457 0.0
2.95673 6.06369 0.0
0 6 0.0
9.41726 8 0.0
6.24733 8.89749 0.0
2.9207 9.05037 0.0
0 9 0.0

CELL_DATA 1
POINT_DATA 10
VECTORS U Float64
0 0 0.0
0.0134949 0.0773263 0.0
0 0 0.0
-0.188285 -0.0854279 0.0
-0.0432731 0.0636949 0.0
0 0 0.0
0.417255 -1 0.0
0.247328 -0.102513 0.0
-0.0793044 0.050368 0.0
0 0 0.0

CELL_DATA 1
POINT_DATA 10
TENSORS E Float64
-2.43375e-06 -1.19134e-05  0.00
-1.19134e-05 0.00123239  0.00
0.00 0.00  0.00

2.39738e-05 -4.76314e-05  0.00
-4.76314e-05 0.0019249  0.00
0.00 0.00  0.00

3.10775e-05 -3.23597e-05  0.00
-3.23597e-05 0.0023078  0.00
0.00 0.00  0.00

3.55196e-07 2.55832e-06  0.00
2.55832e-06 0.00357428  0.00
0.00 0.00  0.00

4.83076e-06 0.000157578  0.00
0.000157578 -0.00435502  0.00
0.00 0.00  0.00

-2.45077e-05 -5.08925e-05  0.00
-5.08925e-05 0.00223411  0.00
0.00 0.00  0.00

1.35689e-06 -1.99686e-05  0.00
-1.99686e-05 0.000967678  0.00
0.00 0.00  0.00

1.27075e-05 6.67672e-06  0.00
6.67672e-06 0.00359065  0.00
0.00 0.00  0.00

-1.92591e-05 -6.20458e-05  0.00
-6.20458e-05 0.00186758  0.00
0.00 0.00  0.00

6.48733e-06 -8.93901e-06  0.00
-8.93901e-06 0.00124422  0.00
0.00 0.00  0.00


CELL_DATA 1
POINT_DATA 10
TENSORS S Float64
-2.43375e-06 -1.19134e-05  0.00
-1.19134e-05 0.00123239  0.00
0.00 0.00  0.00

2.39738e-05 -4.76314e-05  0.00
-4.76314e-05 0.0019249  0.00
0.00 0.00  0.00

3.10775e-05 -3.23597e-05  0.00
-3.23597e-05 0.0023078  0.00
0.00 0.00  0.00

3.55196e-07 2.55832e-06  0.00
2.55832e-06 0.00357428  0.00
0.00 0.00  0.00

4.83076e-06 0.000157578  0.00
0.000157578 -0.00435502  0.00
0.00 0.00  0.00

-2.45077e-05 -5.08925e-05  0.00
-5.08925e-05 0.00223411  0.00
0.00 0.00  0.00

1.35689e-06 -1.99686e-05  0.00
-1.99686e-05 0.000967678  0.00
0.00 0.00  0.00

1.27075e-05 6.67672e-06  0.00
6.67672e-06 0.00359065  0.00
0.00 0.00  0.00

-1.92591e-05 -6.20458e-05  0.00
-6.20458e-05 0.00186758  0.00
0.00 0.00  0.00

6.48733e-06 -8.93901e-06  0.00
-8.93901e-06 0.00124422  0.00
0.00 0.00  0.00


CELL_DATA 1
POINT_DATA 10
SCALARS ue float
LOOKUP_TABLE default
-5.42821e-06
-1.08158e-05
-1.1471e-05
-1.3574e-05
9.50792e-06
-1.12809e-05
-4.98553e-06
-1.36163e-05
-1.0668e-05
-5.45871e-06

