# vtk DataFile Version 2.0
FEM, Created by Wutzow
ASCII
DATASET UNSTRUCTURED_GRID
POINTS 10 Float64
0 0 0
3.01467 3.07603 0
0 3 0
5.81789 5.91115 0
2.95826 6.0649 0
0 6 0
9.45543 8 0
6.25831 8.90699 0
2.91784 9.05458 0
0 9 0

CELLS 1 11
10 0 6 9 1 3 7 8 5 2 4

CELL_TYPES 1
69

CELL_DATA 1
POINT_DATA 10
VECTORS Y Float64
0 0 0.0
3.01467 3.07603 0.0
0 3 0.0
5.81789 5.91115 0.0
2.95826 6.0649 0.0
0 6 0.0
9.45543 8 0.0
6.25831 8.90699 0.0
2.91784 9.05458 0.0
0 9 0.0

CELL_DATA 1
POINT_DATA 10
VECTORS U Float64
0 0 0.0
0.0146733 0.076035 0.0
0 0 0.0
-0.182108 -0.0888523 0.0
-0.0417388 0.0649036 0.0
0 0 0.0
0.455426 -1 0.0
0.258313 -0.0930104 0.0
-0.0821591 0.0545785 0.0
0 0 0.0

CELL_DATA 1
POINT_DATA 10
TENSORS E Float64
-0.000358595 -0.0256859  0.00
-0.0256859 1.14865e-16  0.00
0.00 0.00  0.00

-0.00123776 -0.0384021  0.00
-0.0384021 1.96126e-16  0.00
0.00 0.00  0.00

-0.00105632 -0.0465668  0.00
-0.0465668 1.50802e-16  0.00
0.00 0.00  0.00

-0.000421282 -0.0751434  0.00
-0.0751434 1.96126e-16  0.00
0.00 0.00  0.00

0.00154321 0.0277778  0.00
0.0277778 1.71331e-30  0.00
0.00 0.00  0.00

-0.00105632 -0.0465668  0.00
-0.0465668 3.54758e-16  0.00
0.00 0.00  0.00

-0.000489634 -0.0197892  0.00
-0.0197892 1.14865e-16  0.00
0.00 0.00  0.00

-0.000421282 -0.0751434  0.00
-0.0751434 1.50802e-16  0.00
0.00 0.00  0.00

-0.00123776 -0.0384021  0.00
-0.0384021 3.54758e-16  0.00
0.00 0.00  0.00

-0.000358595 -0.0256859  0.00
-0.0256859 8.21311e-17  0.00
0.00 0.00  0.00


CELL_DATA 1
POINT_DATA 10
TENSORS S Float64
-0.000358595 -0.0256859  0.00
-0.0256859 1.14865e-16  0.00
0.00 0.00  0.00

-0.00123776 -0.0384021  0.00
-0.0384021 1.96126e-16  0.00
0.00 0.00  0.00

-0.00105632 -0.0465668  0.00
-0.0465668 1.50802e-16  0.00
0.00 0.00  0.00

-0.000421282 -0.0751434  0.00
-0.0751434 1.96126e-16  0.00
0.00 0.00  0.00

0.00154321 0.0277778  0.00
0.0277778 1.71331e-30  0.00
0.00 0.00  0.00

-0.00105632 -0.0465668  0.00
-0.0465668 3.54758e-16  0.00
0.00 0.00  0.00

-0.000489634 -0.0197892  0.00
-0.0197892 1.14865e-16  0.00
0.00 0.00  0.00

-0.000421282 -0.0751434  0.00
-0.0751434 1.50802e-16  0.00
0.00 0.00  0.00

-0.00123776 -0.0384021  0.00
-0.0384021 3.54758e-16  0.00
0.00 0.00  0.00

-0.000358595 -0.0256859  0.00
-0.0256859 8.21311e-17  0.00
0.00 0.00  0.00


CELL_DATA 1
POINT_DATA 10
SCALARS ue float
LOOKUP_TABLE default
-0.000179863
-0.000620521
-0.000529645
-0.00021158
0.000772796
-0.000529645
-0.000245495
-0.00021158
-0.000620521
-0.000179863

