# vtk DataFile Version 2.0
FEM, Created by Wutzow
ASCII
DATASET UNSTRUCTURED_GRID
POINTS 10 Float64
0 0 0
3.01349 3.07731 0
0 3 0
5.81176 5.91459 0
2.95674 6.0637 0
0 6 0
9.4175 8 0
6.24738 8.89758 0
2.9207 9.0504 0
0 9 0

CELLS 1 11
10 0 6 9 1 3 7 8 5 2 4

CELL_TYPES 1
69

CELL_DATA 1
POINT_DATA 10
VECTORS Y Float64
0 0 0.0
3.01349 3.07731 0.0
0 3 0.0
5.81176 5.91459 0.0
2.95674 6.0637 0.0
0 6 0.0
9.4175 8 0.0
6.24738 8.89758 0.0
2.9207 9.0504 0.0
0 9 0.0

CELL_DATA 1
POINT_DATA 10
VECTORS U Float64
0 0 0.0
0.0134924 0.0773061 0.0
0 0 0.0
-0.188239 -0.0854147 0.0
-0.0432555 0.063704 0.0
0 0 0.0
0.417497 -1 0.0
0.247377 -0.102419 0.0
-0.0793028 0.0503981 0.0
0 0 0.0

CELL_DATA 1
POINT_DATA 10
TENSORS E Float64
0.00123994 -7.46767e-05  0.00
-7.46767e-05 0.00245453  0.00
0.00 0.00  0.00

0.00114167 -0.000208543  0.00
-0.000208543 0.00303513  0.00
0.00 0.00  0.00

0.00180674 -0.000215961  0.00
-0.000215961 0.00405889  0.00
0.00 0.00  0.00

0.00421688 -0.000172159  0.00
-0.000172159 0.00770942  0.00
0.00 0.00  0.00

0.00122366 -3.27188e-05  0.00
-3.27188e-05 -0.00343945  0.00
0.00 0.00  0.00

0.00188912 -0.000146195  0.00
-0.000146195 0.00412626  0.00
0.00 0.00  0.00

0.000746389 -8.05161e-05  0.00
-8.05161e-05 0.00170434  0.00
0.00 0.00  0.00

0.00419857 -0.000187662  0.00
-0.000187662 0.00769445  0.00
0.00 0.00  0.00

0.00120574 -0.00015428  0.00
-0.00015428 0.00308753  0.00
0.00 0.00  0.00

0.00122672 -8.58737e-05  0.00
-8.58737e-05 0.00244372  0.00
0.00 0.00  0.00


CELL_DATA 1
POINT_DATA 10
TENSORS S Float64
0.00123994 -7.46767e-05  0.00
-7.46767e-05 0.00245453  0.00
0.00 0.00  0.00

0.00114167 -0.000208543  0.00
-0.000208543 0.00303513  0.00
0.00 0.00  0.00

0.00180674 -0.000215961  0.00
-0.000215961 0.00405889  0.00
0.00 0.00  0.00

0.00421688 -0.000172159  0.00
-0.000172159 0.00770942  0.00
0.00 0.00  0.00

0.00122366 -3.27188e-05  0.00
-3.27188e-05 -0.00343945  0.00
0.00 0.00  0.00

0.00188912 -0.000146195  0.00
-0.000146195 0.00412626  0.00
0.00 0.00  0.00

0.000746389 -8.05161e-05  0.00
-8.05161e-05 0.00170434  0.00
0.00 0.00  0.00

0.00419857 -0.000187662  0.00
-0.000187662 0.00769445  0.00
0.00 0.00  0.00

0.00120574 -0.00015428  0.00
-0.00015428 0.00308753  0.00
0.00 0.00  0.00

0.00122672 -8.58737e-05  0.00
-8.58737e-05 0.00244372  0.00
0.00 0.00  0.00


CELL_DATA 1
POINT_DATA 10
SCALARS ue float
LOOKUP_TABLE default
2.0144e-06
7.95078e-07
2.41486e-06
7.9525e-06
6.66464e-06
2.28325e-06
8.65674e-07
7.98174e-06
6.92716e-07
2.03552e-06

