# vtk DataFile Version 2.0
FEM, Created by Wutzow
ASCII
DATASET UNSTRUCTURED_GRID
POINTS 10 Float64
0 0 0
3.01349 3.07733 0
0 3 0
5.81171 5.91457 0
2.95673 6.06369 0
0 6 0
9.41726 8 0
6.24733 8.89749 0
2.9207 9.05037 0
0 9 0

CELLS 1 11
10 0 6 9 1 3 7 8 5 2 4

CELL_TYPES 1
69

CELL_DATA 1
POINT_DATA 10
VECTORS Y Float64
0 0 0.0
3.01349 3.07733 0.0
0 3 0.0
5.81171 5.91457 0.0
2.95673 6.06369 0.0
0 6 0.0
9.41726 8 0.0
6.24733 8.89749 0.0
2.9207 9.05037 0.0
0 9 0.0

CELL_DATA 1
POINT_DATA 10
VECTORS U Float64
0 0 0.0
0.0134949 0.0773263 0.0
0 0 0.0
-0.188285 -0.0854279 0.0
-0.0432731 0.0636949 0.0
0 0 0.0
0.417255 -1 0.0
0.247328 -0.102513 0.0
-0.0793043 0.050368 0.0
0 0 0.0

CELL_DATA 1
POINT_DATA 10
TENSORS E Float64
-1.20624e-05 -9.2284e-06  0.00
-9.2284e-06 0.00122522  0.00
0.00 0.00  0.00

1.48762e-05 -4.18094e-05  0.00
-4.18094e-05 0.00191682  0.00
0.00 0.00  0.00

1.84511e-05 -2.59093e-05  0.00
-2.59093e-05 0.00229578  0.00
0.00 0.00  0.00

-2.96452e-05 9.68036e-06  0.00
9.68036e-06 0.00355001  0.00
0.00 0.00  0.00

2.33344e-06 0.000150845  0.00
0.000150845 -0.00436335  0.00
0.00 0.00  0.00

-4.21573e-05 -4.597e-05  0.00
-4.597e-05 0.00222364  0.00
0.00 0.00  0.00

-4.917e-06 -1.74922e-05  0.00
-1.74922e-05 0.000963099  0.00
0.00 0.00  0.00

-1.61767e-05 1.41383e-05  0.00
1.41383e-05 0.00356604  0.00
0.00 0.00  0.00

-3.22636e-05 -5.74122e-05  0.00
-5.74122e-05 0.00186071  0.00
0.00 0.00  0.00

-2.33514e-06 -6.00879e-06  0.00
-6.00879e-06 0.00123679  0.00
0.00 0.00  0.00


CELL_DATA 1
POINT_DATA 10
TENSORS S Float64
-1.20624e-05 -9.2284e-06  0.00
-9.2284e-06 0.00122522  0.00
0.00 0.00  0.00

1.48762e-05 -4.18094e-05  0.00
-4.18094e-05 0.00191682  0.00
0.00 0.00  0.00

1.84511e-05 -2.59093e-05  0.00
-2.59093e-05 0.00229578  0.00
0.00 0.00  0.00

-2.96452e-05 9.68036e-06  0.00
9.68036e-06 0.00355001  0.00
0.00 0.00  0.00

2.33344e-06 0.000150845  0.00
0.000150845 -0.00436335  0.00
0.00 0.00  0.00

-4.21573e-05 -4.597e-05  0.00
-4.597e-05 0.00222364  0.00
0.00 0.00  0.00

-4.917e-06 -1.74922e-05  0.00
-1.74922e-05 0.000963099  0.00
0.00 0.00  0.00

-1.61767e-05 1.41383e-05  0.00
1.41383e-05 0.00356604  0.00
0.00 0.00  0.00

-3.22636e-05 -5.74122e-05  0.00
-5.74122e-05 0.00186071  0.00
0.00 0.00  0.00

-2.33514e-06 -6.00879e-06  0.00
-6.00879e-06 0.00123679  0.00
0.00 0.00  0.00


CELL_DATA 1
POINT_DATA 10
SCALARS ue float
LOOKUP_TABLE default
-5.44219e-06
-1.08489e-05
-1.1502e-05
-1.36018e-05
9.54219e-06
-1.13158e-05
-5.00037e-06
-1.36432e-05
-1.07041e-05
-5.47207e-06

