<?xml version="1.0"?>
<VTKFile type="UnstructuredGrid">
  <UnstructuredGrid>
  <Piece NumberOfPoints="16"  NumberOfCells="2">
    <Points>
      <DataArray type="Float64" NumberOfComponents="3" format="ascii">
0 -0.0296184 0
1 -0.0515225 0
1 0.25 0
0 0.25 0
0.332877 -0.0454573 0
0.666599 -0.0505713 0
1 0.121962 0
1 0.271008 0
0.666602 0.25 0
0.333266 0.25 0
0 0.284121 0
0 0.111985 0
0.333397 0.114735 0
0.666474 0.275254 0
0.666792 0.119085 0
0.333373 0.281093 0
      </DataArray>
    </Points>
    <Cells>
      <DataArray type="Int32" Name="connectivity" format="ascii">
 0 1 2 4 5 6 7 13 12 14
 0 2 3 12 13 8 9 10 11 15
      </DataArray>
      <DataArray type="Int32" Name="offsets" format="ascii">
10
20
      </DataArray>
      <DataArray type="UInt8" Name="types" format="ascii">
69
69
      </DataArray>
    </Cells>
    <PointData>
      <DataArray type="Float64" NumberOfComponents="2" Name="Displacement" format="ascii">
0 -0.0296184
0.5 -0.0515225
0.5 -0.25
0 -0.25
0.166207 -0.0454573
0.333269 -0.0505713
0.5 -0.0447077
0.5 -0.0623222
0.333272 -0.25
0.166596 -0.25
0 -0.0492091
0 -0.0546847
0.166727 -0.0519352
0.333144 -0.0580759
0.333462 -0.0475854
0.166703 -0.0522366
      </DataArray>
      <DataArray type="Float64" NumberOfComponents="9" Name="Tensor S" format="ascii">
1.50402 -0.00502412  0.00
-0.00502412 -0.403013  0.00
0.00 0.00  0.00

1.49388 -0.00260964  0.00
-0.00260964 -0.161398  0.00
0.00 0.00  0.00

1.51282 0.0446872  0.00
0.0446872 0.0244814  0.00
0.00 0.00  0.00

1.49839 0  0.00
0 0.341047  0.00
0.00 0.00  0.00

1.50363 -0.0128807  0.00
-0.0128807 -0.270503  0.00
0.00 0.00  0.00

1.50526 -0.00176497  0.00
-0.00176497 -0.205778  0.00
0.00 0.00  0.00

1.49235 -0.000152614  0.00
-0.000152614 0.11965  0.00
0.00 0.00  0.00

1.49875 -0.0158704  0.00
-0.0158704 -0.359686  0.00
0.00 0.00  0.00

1.50054 0.000266184  0.00
0.000266184 0.209165  0.00
0.00 0.00  0.00

1.49974 -0.000889659  0.00
-0.000889659 0.284229  0.00
0.00 0.00  0.00

1.50176 -0.00316616  0.00
-0.00316616 -0.288196  0.00
0.00 0.00  0.00

1.50461 0.0196522  0.00
0.0196522 0.193891  0.00
0.00 0.00  0.00

1.49735 0.00475333  0.00
0.00475333 0.113962  0.00
0.00 0.00  0.00

1.50086 -0.0078063  0.00
-0.0078063 -0.302361  0.00
0.00 0.00  0.00

1.50247 0.0154874  0.00
0.0154874 0.130704  0.00
0.00 0.00  0.00

1.49933 -0.0089388  0.00
-0.0089388 -0.29353  0.00
0.00 0.00  0.00

      </DataArray>
      <DataArray type="Float64" NumberOfComponents="9" Name="Tensor E" format="ascii">
1.50402 -0.00502412  0.00
-0.00502412 -0.403013  0.00
0.00 0.00  0.00

1.49388 -0.00260964  0.00
-0.00260964 -0.161398  0.00
0.00 0.00  0.00

1.51282 0.0446872  0.00
0.0446872 0.0244814  0.00
0.00 0.00  0.00

1.49839 0  0.00
0 0.341047  0.00
0.00 0.00  0.00

1.50363 -0.0128807  0.00
-0.0128807 -0.270503  0.00
0.00 0.00  0.00

1.50526 -0.00176497  0.00
-0.00176497 -0.205778  0.00
0.00 0.00  0.00

1.49235 -0.000152614  0.00
-0.000152614 0.11965  0.00
0.00 0.00  0.00

1.49875 -0.0158704  0.00
-0.0158704 -0.359686  0.00
0.00 0.00  0.00

1.50054 0.000266184  0.00
0.000266184 0.209165  0.00
0.00 0.00  0.00

1.49974 -0.000889659  0.00
-0.000889659 0.284229  0.00
0.00 0.00  0.00

1.50176 -0.00316616  0.00
-0.00316616 -0.288196  0.00
0.00 0.00  0.00

1.50461 0.0196522  0.00
0.0196522 0.193891  0.00
0.00 0.00  0.00

1.49735 0.00475333  0.00
0.00475333 0.113962  0.00
0.00 0.00  0.00

1.50086 -0.0078063  0.00
-0.0078063 -0.302361  0.00
0.00 0.00  0.00

1.50247 0.0154874  0.00
0.0154874 0.130704  0.00
0.00 0.00  0.00

1.49933 -0.0089388  0.00
-0.0089388 -0.29353  0.00
0.00 0.00  0.00

      </DataArray>
      <DataArray type="Float64" NumberOfComponents="9" Name="Sigma" format="ascii">
8.01184 0.149146  0.00
0.149146 -0.0420398  0.00
0.00 0.00  0.00

3.6251 -0.0141232  0.00
-0.0141232 -0.0664582  0.00
0.00 0.00  0.00

-2.99662 0.197115  0.00
0.197115 -0.0389131  0.00
0.00 0.00  0.00

-2.30969 0  0.00
0 -0.22125  0.00
0.00 0.00  0.00

4.43989 -0.138632  0.00
-0.138632 -0.0873182  0.00
0.00 0.00  0.00

3.92957 -0.0248702  0.00
-0.0248702 -0.0786687  0.00
0.00 0.00  0.00

2.67596 -0.000520166  0.00
-0.000520166 0.0667273  0.00
0.00 0.00  0.00

5.65409 -0.185389  0.00
-0.185389 -0.0893092  0.00
0.00 0.00  0.00

-2.52027 0.000294014  0.00
0.000294014 -0.124534  0.00
0.00 0.00  0.00

-2.39488 -0.00101611  0.00
-0.00101611 -0.177993  0.00
0.00 0.00  0.00

4.61674 -0.0256153  0.00
-0.0256153 -0.0936063  0.00
0.00 0.00  0.00

2.557 0.0622653  0.00
0.0622653 0.115456  0.00
0.00 0.00  0.00

2.70094 0.0163541  0.00
0.0163541 0.0634133  0.00
0.00 0.00  0.00

4.78506 -0.0545855  0.00
-0.0545855 -0.0934392  0.00
0.00 0.00  0.00

2.67689 0.0532481  0.00
0.0532481 0.0743305  0.00
0.00 0.00  0.00

4.6653 -0.0709485  0.00
-0.0709485 -0.093273  0.00
0.00 0.00  0.00

      </DataArray>
      <DataArray type="Float64" NumberOfComponents="1" Name="ue" format="ascii">
1.21447
1.12888
1.15284
1.18074
1.16721
1.15408
1.12071
1.18806
1.14768
1.16501
1.16919
1.1511
1.12762
1.1722
1.13749
1.16716
      </DataArray> 
    </PointData>
    <CellData>
    </CellData>
  </Piece>
  </UnstructuredGrid>
</VTKFile>
