<?xml version="1.0"?>
<VTKFile type="UnstructuredGrid">
  <UnstructuredGrid>
  <Piece NumberOfPoints="28"  NumberOfCells="4">
    <Points>
      <DataArray type="Float64" NumberOfComponents="3" format="ascii">
0 0 0
13.3783 0.975013 0
13.4539 2.03328 0
0 3 0
6.43132 0.765851 0
2.14619 0.415483 0
4.2867 0.642274 0
8.60841 0.811836 0
10.9037 0.873278 0
12.6413 1.26671 0
12.6123 1.73181 0
6.43223 2.26365 0
10.9093 2.0933 0
8.60675 2.16826 0
4.28818 2.37426 0
2.14304 2.59615 0
0 2 0
0 1 0
6.41354 1.19907 0
6.41679 1.7944 0
4.26528 1.83879 0
2.11898 1.10329 0
4.26207 1.16796 0
2.12035 1.9052 0
10.6428 1.78053 0
8.53582 1.21846 0
10.6446 1.24668 0
8.54466 1.7885 0
      </DataArray>
    </Points>
    <Cells>
      <DataArray type="Int32" Name="connectivity" format="ascii">
 0 4 11 5 6 18 19 20 21 22
 11 3 0 14 15 16 17 21 20 23
 4 1 2 7 8 9 10 24 25 26
 2 11 4 12 13 19 18 25 24 27
      </DataArray>
      <DataArray type="Int32" Name="offsets" format="ascii">
10
20
30
40
      </DataArray>
      <DataArray type="UInt8" Name="types" format="ascii">
69
69
69
69
      </DataArray>
    </Cells>
    <PointData>
      <DataArray type="Float64" NumberOfComponents="2" Name="Displacement" format="ascii">
0 0
7.37835 0.975013
7.45392 -0.966723
0 0
3.43132 0.765851
1.14619 0.415483
2.2867 0.642274
4.60841 0.811836
5.90375 0.873278
6.6413 0.266711
6.61229 -0.268189
3.43223 -0.736346
5.90927 -0.906697
4.60675 -0.831738
2.28818 -0.625741
1.14304 -0.403845
0 0
0 0
3.41354 0.199073
3.41679 -0.205604
2.26528 -0.161215
1.11898 0.103286
2.26207 0.167964
1.12035 -0.0948019
5.64275 -0.219465
4.53582 0.21846
5.64461 0.24668
4.54466 -0.211504
      </DataArray> 
    </PointData>
    <CellData>
    </CellData>
  </Piece>
  </UnstructuredGrid>
</VTKFile>
