<?xml version="1.0"?>
<VTKFile type="UnstructuredGrid">
  <UnstructuredGrid>
  <Piece NumberOfPoints="28"  NumberOfCells="4">
    <Points>
      <DataArray type="Float64" NumberOfComponents="3" format="ascii">
0 0 0
14.4299 1.08461 0
14.5112 1.92024 0
0 3 0
6.9331 0.892104 0
2.31182 0.471132 0
4.61983 0.740061 0
9.27884 0.958575 0
11.7552 1.01606 0
13.6251 1.29996 0
13.5918 1.70172 0
6.93399 2.13764 0
11.7607 1.96267 0
9.2775 2.03194 0
4.62147 2.27719 0
2.30893 2.54082 0
0 2 0
0 1 0
6.91596 1.22819 0
6.92006 1.76502 0
4.60047 1.81931 0
2.28658 1.11578 0
4.59697 1.18949 0
2.28765 1.89507 0
11.4737 1.7373 0
9.20353 1.25227 0
11.4769 1.28273 0
9.21345 1.74969 0
      </DataArray>
    </Points>
    <Cells>
      <DataArray type="Int32" Name="connectivity" format="ascii">
 0 4 11 5 6 18 19 20 21 22
 11 3 0 14 15 16 17 21 20 23
 4 1 2 7 8 9 10 24 25 26
 2 11 4 12 13 19 18 25 24 27
      </DataArray>
      <DataArray type="Int32" Name="offsets" format="ascii">
10
20
30
40
      </DataArray>
      <DataArray type="UInt8" Name="types" format="ascii">
69
69
69
69
      </DataArray>
    </Cells>
    <PointData>
      <DataArray type="Float64" NumberOfComponents="2" Name="Displacement" format="ascii">
0 0
8.42989 1.08461
8.5112 -1.07976
0 0
3.9331 0.892104
1.31182 0.471132
2.61983 0.740061
5.27884 0.958575
6.75517 1.01606
7.6251 0.299964
7.59175 -0.298275
3.93399 -0.862358
6.7607 -1.03733
5.2775 -0.968065
2.62147 -0.722813
1.30893 -0.459182
0 0
0 0
3.91596 0.22819
3.92006 -0.23498
2.60047 -0.180695
1.28658 0.115783
2.59697 0.189487
1.28765 -0.104935
6.47367 -0.262696
5.20353 0.252273
6.47687 0.282727
5.21345 -0.250306
      </DataArray> 
    </PointData>
    <CellData>
    </CellData>
  </Piece>
  </UnstructuredGrid>
</VTKFile>
