<?xml version="1.0"?>
<VTKFile type="UnstructuredGrid">
  <UnstructuredGrid>
  <Piece NumberOfPoints="28"  NumberOfCells="4">
    <Points>
      <DataArray type="Float64" NumberOfComponents="3" format="ascii">
0 0 0
12.0949 0.807011 0
12.1626 2.21602 0
0 3 0
5.82026 0.583166 0
1.94465 0.337891 0
3.88115 0.503777 0
7.79128 0.594689 0
9.86501 0.656566 0
11.4439 1.22123 0
11.421 1.76288 0
5.82137 2.44543 0
9.87075 2.308 0
7.7896 2.38224 0
3.88246 2.51021 0
1.94113 2.67228 0
0 2 0
0 1 0
5.80404 1.15836 0
5.80618 1.83527 0
3.85956 1.86639 0
1.91657 1.08564 0
3.85674 1.13761 0
1.91843 1.9194 0
9.63165 1.83261 0
7.72425 1.17036 0
9.63154 1.19525 0
7.73164 1.83849 0
      </DataArray>
    </Points>
    <Cells>
      <DataArray type="Int32" Name="connectivity" format="ascii">
 0 4 11 5 6 18 19 20 21 22
 11 3 0 14 15 16 17 21 20 23
 4 1 2 7 8 9 10 24 25 26
 2 11 4 12 13 19 18 25 24 27
      </DataArray>
      <DataArray type="Int32" Name="offsets" format="ascii">
10
20
30
40
      </DataArray>
      <DataArray type="UInt8" Name="types" format="ascii">
69
69
69
69
      </DataArray>
    </Cells>
    <PointData>
      <DataArray type="Float64" NumberOfComponents="2" Name="Displacement" format="ascii">
0 0
6.09493 0.807011
6.16259 -0.78398
0 0
2.82026 0.583166
0.94465 0.337891
1.88115 0.503777
3.79128 0.594689
4.86501 0.656566
5.44393 0.221228
5.42095 -0.237117
2.82137 -0.554574
4.87075 -0.692005
3.7896 -0.617763
1.88246 -0.489787
0.941134 -0.327722
0 0
0 0
2.80404 0.158364
2.80618 -0.164733
1.85956 -0.133609
0.916567 0.0856443
1.85674 0.137612
0.918431 -0.0806039
4.63165 -0.167387
3.72425 0.170358
4.63154 0.195247
3.73164 -0.161509
      </DataArray> 
    </PointData>
    <CellData>
    </CellData>
  </Piece>
  </UnstructuredGrid>
</VTKFile>
