<?xml version="1.0"?>
<VTKFile type="UnstructuredGrid">
  <UnstructuredGrid>
  <Piece NumberOfPoints="28"  NumberOfCells="4">
    <Points>
      <DataArray type="Float64" NumberOfComponents="3" format="ascii">
0 0 0
9.22472 0.445514 0
9.26641 2.59405 0
0 3 0
4.45632 0.243245 0
1.4932 0.169017 0
2.97436 0.22704 0
5.96838 0.212328 0
7.54455 0.254915 0
8.78898 1.11616 0
8.78084 1.85241 0
4.4584 2.77552 0
7.5501 2.72759 0
5.96618 2.77465 0
2.97678 2.77909 0
1.49026 2.83723 0
0 2 0
0 1 0
4.45405 1.06844 0
4.45501 1.92637 0
2.96329 1.93373 0
1.47194 1.04632 0
2.96171 1.0687 0
1.47369 1.95556 0
7.38677 1.93731 0
5.92437 1.06475 0
7.3824 1.0793 0
5.92915 1.94179 0
      </DataArray>
    </Points>
    <Cells>
      <DataArray type="Int32" Name="connectivity" format="ascii">
 0 4 11 5 6 18 19 20 21 22
 11 3 0 14 15 16 17 21 20 23
 4 1 2 7 8 9 10 24 25 26
 2 11 4 12 13 19 18 25 24 27
      </DataArray>
      <DataArray type="Int32" Name="offsets" format="ascii">
10
20
30
40
      </DataArray>
      <DataArray type="UInt8" Name="types" format="ascii">
69
69
69
69
      </DataArray>
    </Cells>
    <PointData>
      <DataArray type="Float64" NumberOfComponents="2" Name="Displacement" format="ascii">
0 0
3.22472 0.445514
3.26641 -0.405946
0 0
1.45632 0.243245
0.493203 0.169017
0.974357 0.22704
1.96838 0.212328
2.54455 0.254915
2.78898 0.116157
2.78084 -0.147592
1.4584 -0.224476
2.5501 -0.272408
1.96618 -0.225354
0.976776 -0.22091
0.490262 -0.16277
0 0
0 0
1.45405 0.068437
1.45501 -0.0736261
0.963288 -0.066273
0.471939 0.0463226
0.961712 0.0686991
0.473687 -0.0444413
2.38677 -0.0626864
1.92437 0.0647518
2.3824 0.0793025
1.92915 -0.0582078
      </DataArray> 
    </PointData>
    <CellData>
    </CellData>
  </Piece>
  </UnstructuredGrid>
</VTKFile>
