<?xml version="1.0"?>
<VTKFile type="UnstructuredGrid">
  <UnstructuredGrid>
  <Piece NumberOfPoints="28"  NumberOfCells="4">
    <Points>
      <DataArray type="Float64" NumberOfComponents="3" format="ascii">
0 0 0
11.7205 0.757074 0
11.7854 2.27056 0
0 3 0
5.64203 0.531876 0
1.88584 0.315108 0
3.76281 0.46407 0
7.55299 0.534541 0
9.56199 0.595233 0
11.0955 1.2069 0
11.0743 1.77274 0
5.64324 2.49626 0
9.56775 2.37148 0
7.55131 2.44358 0
3.76416 2.54904 0
1.88227 2.69457 0
0 2 0
0 1 0
5.62697 1.14593 0
5.62888 1.84773 0
3.74187 1.87504 0
1.85797 1.08044 0
3.73917 1.12843 0
1.85994 1.92385 0
9.33735 1.84756 0
7.48823 1.15543 0
9.33666 1.17915 0
7.49523 1.85323 0
      </DataArray>
    </Points>
    <Cells>
      <DataArray type="Int32" Name="connectivity" format="ascii">
 0 4 11 5 6 18 19 20 21 22
 11 3 0 14 15 16 17 21 20 23
 4 1 2 7 8 9 10 24 25 26
 2 11 4 12 13 19 18 25 24 27
      </DataArray>
      <DataArray type="Int32" Name="offsets" format="ascii">
10
20
30
40
      </DataArray>
      <DataArray type="UInt8" Name="types" format="ascii">
69
69
69
69
      </DataArray>
    </Cells>
    <PointData>
      <DataArray type="Float64" NumberOfComponents="2" Name="Displacement" format="ascii">
0 0
5.72051 0.757074
5.78541 -0.729436
0 0
2.64203 0.531876
0.885836 0.315108
1.76281 0.46407
3.55299 0.534541
4.56199 0.595233
5.09547 0.206898
5.07433 -0.22726
2.64324 -0.503735
4.56775 -0.628517
3.55131 -0.556424
1.76416 -0.45096
0.882271 -0.305426
0 0
0 0
2.62697 0.145934
2.62888 -0.152274
1.74187 -0.12496
0.85797 0.0804406
1.73917 0.128433
0.859938 -0.0761544
4.33735 -0.152438
3.48823 0.155425
4.33666 0.179146
3.49523 -0.146765
      </DataArray> 
    </PointData>
    <CellData>
    </CellData>
  </Piece>
  </UnstructuredGrid>
</VTKFile>
