<?xml version="1.0"?>
<VTKFile type="UnstructuredGrid">
  <UnstructuredGrid>
  <Piece NumberOfPoints="28"  NumberOfCells="4">
    <Points>
      <DataArray type="Float64" NumberOfComponents="3" format="ascii">
0 0 0
15.119 1.13716 0
15.2042 1.8677 0
0 3 0
7.26257 0.951924 0
2.42077 0.500359 0
4.83877 0.78898 0
9.7188 1.02572 0
12.3135 1.08123 0
14.2704 1.32023 0
14.2347 1.68116 0
7.26346 2.07591 0
12.3191 1.90351 0
9.71768 1.96913 0
4.8404 2.22718 0
2.41793 2.511 0
0 2 0
0 1 0
7.24609 1.2451 0
7.25052 1.74852 0
4.82087 1.80812 0
2.39692 1.12249 0
4.81726 1.20158 0
2.39788 1.8892 0
12.0189 1.71158 0
9.64177 1.27204 0
12.0227 1.3037 0
9.65231 1.7272 0
      </DataArray>
    </Points>
    <Cells>
      <DataArray type="Int32" Name="connectivity" format="ascii">
 0 4 11 5 6 18 19 20 21 22
 11 3 0 14 15 16 17 21 20 23
 4 1 2 7 8 9 10 24 25 26
 2 11 4 12 13 19 18 25 24 27
      </DataArray>
      <DataArray type="Int32" Name="offsets" format="ascii">
10
20
30
40
      </DataArray>
      <DataArray type="UInt8" Name="types" format="ascii">
69
69
69
69
      </DataArray>
    </Cells>
    <PointData>
      <DataArray type="Float64" NumberOfComponents="2" Name="Displacement" format="ascii">
0 0
9.11902 1.13716
9.20423 -1.1323
0 0
4.26257 0.951924
1.42077 0.500359
2.83877 0.78898
5.7188 1.02572
7.31346 1.08123
8.27038 0.320226
8.23468 -0.318841
4.26346 -0.924092
7.31914 -1.09649
5.71768 -1.03087
2.8404 -0.772817
1.41793 -0.488996
0 0
0 0
4.24609 0.245097
4.25052 -0.251482
2.82087 -0.19188
1.39692 0.122485
2.81726 0.201577
1.39788 -0.110803
7.01893 -0.28842
5.64177 0.272038
7.02273 0.303698
5.65231 -0.272804
      </DataArray> 
    </PointData>
    <CellData>
    </CellData>
  </Piece>
  </UnstructuredGrid>
</VTKFile>
