<?xml version="1.0"?>
<VTKFile type="UnstructuredGrid">
  <UnstructuredGrid>
  <Piece NumberOfPoints="28"  NumberOfCells="4">
    <Points>
      <DataArray type="Float64" NumberOfComponents="3" format="ascii">
0 0 0
11.3167 0.704026 0
11.3784 2.32789 0
0 3 0
5.44983 0.478785 0
1.82237 0.290745 0
3.63515 0.422331 0
7.29607 0.472999 0
9.23523 0.531881 0
10.7202 1.19136 0
10.7011 1.78415 0
5.45115 2.54855 0
9.24099 2.43754 0
7.29437 2.50665 0
3.63659 2.58973 0
1.8188 2.7184 0
0 2 0
0 1 0
5.43633 1.13257 0
5.43804 1.86118 0
3.61523 1.88453 0
1.79498 1.07487 0
3.61266 1.11854 0
1.79702 1.92876 0
9.02035 1.86348 0
7.23405 1.13938 0
9.01903 1.16177 0
7.24067 1.86899 0
      </DataArray>
    </Points>
    <Cells>
      <DataArray type="Int32" Name="connectivity" format="ascii">
 0 4 11 5 6 18 19 20 21 22
 11 3 0 14 15 16 17 21 20 23
 4 1 2 7 8 9 10 24 25 26
 2 11 4 12 13 19 18 25 24 27
      </DataArray>
      <DataArray type="Int32" Name="offsets" format="ascii">
10
20
30
40
      </DataArray>
      <DataArray type="UInt8" Name="types" format="ascii">
69
69
69
69
      </DataArray>
    </Cells>
    <PointData>
      <DataArray type="Float64" NumberOfComponents="2" Name="Displacement" format="ascii">
0 0
5.31672 0.704026
5.37844 -0.672114
0 0
2.44983 0.478785
0.822374 0.290745
1.63515 0.422331
3.29607 0.472999
4.23523 0.531881
4.72017 0.191363
4.70106 -0.215852
2.45115 -0.451451
4.24099 -0.562456
3.29437 -0.493351
1.63659 -0.410266
0.818796 -0.281603
0 0
0 0
2.43633 0.132573
2.43804 -0.138823
1.61523 -0.115474
0.79498 0.0748705
1.61266 0.118543
0.797022 -0.0712432
4.02035 -0.136516
3.23405 0.139378
4.01903 0.161767
3.24067 -0.131014
      </DataArray> 
    </PointData>
    <CellData>
    </CellData>
  </Piece>
  </UnstructuredGrid>
</VTKFile>
