<?xml version="1.0"?>
<VTKFile type="UnstructuredGrid">
  <UnstructuredGrid>
  <Piece NumberOfPoints="28"  NumberOfCells="4">
    <Points>
      <DataArray type="Float64" NumberOfComponents="3" format="ascii">
0 0 0
12.4447 0.853948 0
12.5148 2.16449 0
0 3 0
5.98675 0.63258 0
1.99957 0.359267 0
3.99167 0.541555 0
8.01392 0.653164 0
10.1481 0.715652 0
11.7698 1.23432 0
11.7452 1.75426 0
5.98778 2.39623 0
10.1538 2.2476 0
8.01224 2.32316 0
3.99299 2.47318 0
1.99613 2.65134 0
0 2 0
0 1 0
5.96973 1.16988 0
5.97214 1.82376 0
3.96975 1.85851 0
1.97148 1.09053 0
3.96683 1.14613 0
1.97322 1.91535 0
9.90685 1.81856 0
7.94503 1.18412 0
9.90729 1.21003 0
7.9528 1.82473 0
      </DataArray>
    </Points>
    <Cells>
      <DataArray type="Int32" Name="connectivity" format="ascii">
 0 4 11 5 6 18 19 20 21 22
 11 3 0 14 15 16 17 21 20 23
 4 1 2 7 8 9 10 24 25 26
 2 11 4 12 13 19 18 25 24 27
      </DataArray>
      <DataArray type="Int32" Name="offsets" format="ascii">
10
20
30
40
      </DataArray>
      <DataArray type="UInt8" Name="types" format="ascii">
69
69
69
69
      </DataArray>
    </Cells>
    <PointData>
      <DataArray type="Float64" NumberOfComponents="2" Name="Displacement" format="ascii">
0 0
6.44471 0.853948
6.51476 -0.835507
0 0
2.98675 0.63258
0.999571 0.359267
1.99167 0.541555
4.01392 0.653164
5.1481 0.715652
5.76982 0.234324
5.74516 -0.24574
2.98778 -0.603768
5.1538 -0.752398
4.01224 -0.676842
1.99299 -0.52682
0.996131 -0.348662
0 0
0 0
2.96973 0.169875
2.97214 -0.176241
1.96975 -0.141494
0.971484 0.0905252
1.96683 0.146134
0.973225 -0.0846506
4.90685 -0.181435
3.94503 0.184125
4.90729 0.210031
3.9528 -0.175272
      </DataArray> 
    </PointData>
    <CellData>
    </CellData>
  </Piece>
  </UnstructuredGrid>
</VTKFile>
