<?xml version="1.0"?>
<VTKFile type="UnstructuredGrid">
  <UnstructuredGrid>
  <Piece NumberOfPoints="28"  NumberOfCells="4">
    <Points>
      <DataArray type="Float64" NumberOfComponents="3" format="ascii">
0 0 0
14.6676 1.10426 0
14.7502 1.90051 0
0 3 0
7.04669 0.914654 0
2.34936 0.481864 0
4.69529 0.758252 0
9.43053 0.984053 0
11.9477 1.04076 0
13.8476 1.30717 0
13.8134 1.69451 0
7.04757 2.11459 0
11.9533 1.94032 0
9.42927 2.00824 0
4.69693 2.25873 0
2.34649 2.52994 0
0 2 0
0 1 0
7.02977 1.23423 0
7.034 1.75907 0
4.67644 1.81531 0
2.3246 1.11822 0
4.67289 1.19384 0
2.32563 1.89297 0
11.6617 1.72807 0
9.35463 1.25933 0
11.6651 1.29024 0
9.36478 1.7416 0
      </DataArray>
    </Points>
    <Cells>
      <DataArray type="Int32" Name="connectivity" format="ascii">
 0 4 11 5 6 18 19 20 21 22
 11 3 0 14 15 16 17 21 20 23
 4 1 2 7 8 9 10 24 25 26
 2 11 4 12 13 19 18 25 24 27
      </DataArray>
      <DataArray type="Int32" Name="offsets" format="ascii">
10
20
30
40
      </DataArray>
      <DataArray type="UInt8" Name="types" format="ascii">
69
69
69
69
      </DataArray>
    </Cells>
    <PointData>
      <DataArray type="Float64" NumberOfComponents="2" Name="Displacement" format="ascii">
0 0
8.66756 1.10426
8.7502 -1.09949
0 0
4.04669 0.914654
1.34936 0.481864
2.69529 0.758252
5.43053 0.984053
6.94769 1.04076
7.84763 0.307166
7.81342 -0.305489
4.04757 -0.885411
6.95326 -1.05968
5.42927 -0.991762
2.69693 -0.741268
1.34649 -0.47006
0 0
0 0
4.02977 0.234231
4.034 -0.240929
2.67644 -0.184692
1.3246 0.118223
2.67289 0.193836
1.32563 -0.107027
6.66168 -0.271934
5.35463 0.259328
6.66511 0.290235
5.36478 -0.258401
      </DataArray> 
    </PointData>
    <CellData>
    </CellData>
  </Piece>
  </UnstructuredGrid>
</VTKFile>
