<?xml version="1.0"?>
<VTKFile type="UnstructuredGrid">
  <UnstructuredGrid>
  <Piece NumberOfPoints="28"  NumberOfCells="4">
    <Points>
      <DataArray type="Float64" NumberOfComponents="3" format="ascii">
0 0 0
14.897 1.12166 0
14.981 1.88312 0
0 3 0
7.1564 0.934454 0
2.38564 0.491565 0
4.7682 0.774468 0
9.57704 1.00625 0
12.1336 1.0623 0
14.0625 1.31392 0
14.0275 1.68764 0
7.15729 2.09413 0
12.1392 1.92076 0
9.57585 1.98746 0
4.76984 2.24214 0
2.38279 2.52004 0
0 2 0
0 1 0
7.1397 1.23986 0
7.14404 1.75358 0
4.74984 1.81159 0
2.36135 1.12045 0
4.74625 1.19786 0
2.36234 1.89102 0
11.8432 1.7195 0
9.50057 1.26591 0
11.8469 1.29722 0
9.51092 1.73411 0
      </DataArray>
    </Points>
    <Cells>
      <DataArray type="Int32" Name="connectivity" format="ascii">
 0 4 11 5 6 18 19 20 21 22
 11 3 0 14 15 16 17 21 20 23
 4 1 2 7 8 9 10 24 25 26
 2 11 4 12 13 19 18 25 24 27
      </DataArray>
      <DataArray type="Int32" Name="offsets" format="ascii">
10
20
30
40
      </DataArray>
      <DataArray type="UInt8" Name="types" format="ascii">
69
69
69
69
      </DataArray>
    </Cells>
    <PointData>
      <DataArray type="Float64" NumberOfComponents="2" Name="Displacement" format="ascii">
0 0
8.89703 1.12166
8.98097 -1.11688
0 0
4.1564 0.934454
1.38564 0.491565
2.7682 0.774468
5.57704 1.00625
7.13359 1.0623
8.0625 0.313921
8.02752 -0.312361
4.15729 -0.905868
7.13922 -1.07924
5.57585 -1.01254
2.76984 -0.75786
1.38279 -0.479963
0 0
0 0
4.1397 0.239858
4.14404 -0.246415
2.74984 -0.188412
1.36135 0.120448
2.74625 0.197856
1.36234 -0.108979
6.84325 -0.280502
5.50057 0.265909
6.84688 0.297218
5.51092 -0.265889
      </DataArray> 
    </PointData>
    <CellData>
    </CellData>
  </Piece>
  </UnstructuredGrid>
</VTKFile>
