<?xml version="1.0"?>
<VTKFile type="UnstructuredGrid">
  <UnstructuredGrid>
  <Piece NumberOfPoints="28"  NumberOfCells="4">
    <Points>
      <DataArray type="Float64" NumberOfComponents="3" format="ascii">
0 0 0
8.47827 0.356317 0
8.511 2.68038 0
0 3 0
4.1048 0.174564 0
1.37595 0.127473 0
2.74009 0.166142 0
5.49792 0.142087 0
6.94351 0.176288 0
8.10985 1.09197 0
8.1054 1.87972 0
4.1071 2.84005 0
6.94877 2.80987 0
5.49542 2.8471 0
2.74281 2.83807 0
1.37351 2.87763 0
0 2 0
0 1 0
4.10659 1.04871 0
4.10731 1.94656 0
2.73285 1.95055 0
1.3583 1.03593 0
2.73168 1.05167 0
1.35971 1.96562 0
6.81025 1.95855 0
5.46183 1.04344 0
6.80516 1.0547 0
5.46575 1.96231 0
      </DataArray>
    </Points>
    <Cells>
      <DataArray type="Int32" Name="connectivity" format="ascii">
 0 4 11 5 6 18 19 20 21 22
 11 3 0 14 15 16 17 21 20 23
 4 1 2 7 8 9 10 24 25 26
 2 11 4 12 13 19 18 25 24 27
      </DataArray>
      <DataArray type="Int32" Name="offsets" format="ascii">
10
20
30
40
      </DataArray>
      <DataArray type="UInt8" Name="types" format="ascii">
69
69
69
69
      </DataArray>
    </Cells>
    <PointData>
      <DataArray type="Float64" NumberOfComponents="2" Name="Displacement" format="ascii">
0 0
2.47827 0.356317
2.511 -0.319619
0 0
1.1048 0.174564
0.375953 0.127473
0.740087 0.166142
1.49792 0.142087
1.94351 0.176288
2.10985 0.0919687
2.1054 -0.120283
1.1071 -0.159946
1.94877 -0.190132
1.49542 -0.152901
0.742814 -0.161926
0.373515 -0.122368
0 0
0 0
1.10659 0.0487067
1.10731 -0.0534402
0.732852 -0.0494483
0.358303 0.03593
0.73168 0.051665
0.359713 -0.0343841
1.81025 -0.0414546
1.46183 0.0434391
1.80516 0.0546954
1.46575 -0.0376903
      </DataArray> 
    </PointData>
    <CellData>
    </CellData>
  </Piece>
  </UnstructuredGrid>
</VTKFile>
