<?xml version="1.0"?>
<VTKFile type="UnstructuredGrid">
  <UnstructuredGrid>
  <Piece NumberOfPoints="28"  NumberOfCells="4">
    <Points>
      <DataArray type="Float64" NumberOfComponents="3" format="ascii">
0 0 0
13.0839 0.938248 0
13.1578 2.07257 0
0 3 0
6.29105 0.724475 0
2.09992 0.398079 0
4.19362 0.611027 0
8.42087 0.762646 0
10.6654 0.824836 0
12.3662 1.25693 0
12.3385 1.73912 0
6.29198 2.3047 0
10.671 2.13942 0
8.41918 2.21523 0
4.19503 2.40496 0
2.09668 2.61326 0
0 2 0
0 1 0
6.27331 1.19019 0
6.27628 1.80339 0
4.17183 1.84477 0
2.07231 1.09936 0
4.16872 1.1613 0
2.0738 1.90829 0
10.4105 1.79266 0
8.34925 1.20811 0
10.4119 1.23566 0
8.35776 1.79983 0
      </DataArray>
    </Points>
    <Cells>
      <DataArray type="Int32" Name="connectivity" format="ascii">
 0 4 11 5 6 18 19 20 21 22
 11 3 0 14 15 16 17 21 20 23
 4 1 2 7 8 9 10 24 25 26
 2 11 4 12 13 19 18 25 24 27
      </DataArray>
      <DataArray type="Int32" Name="offsets" format="ascii">
10
20
30
40
      </DataArray>
      <DataArray type="UInt8" Name="types" format="ascii">
69
69
69
69
      </DataArray>
    </Cells>
    <PointData>
      <DataArray type="Float64" NumberOfComponents="2" Name="Displacement" format="ascii">
0 0
7.08389 0.938248
7.15783 -0.927433
0 0
3.29105 0.724475
1.09992 0.398079
2.19362 0.611027
4.42087 0.762646
5.66541 0.824836
6.3662 0.256931
6.33853 -0.260881
3.29198 -0.695297
5.67099 -0.860581
4.41918 -0.784773
2.19503 -0.595043
1.09668 -0.386737
0 0
0 0
3.27331 0.190189
3.27628 -0.196611
2.17183 -0.155231
1.07231 0.0993567
2.16872 0.161296
1.0738 -0.0917119
5.41045 -0.207342
4.34925 0.208111
5.41186 0.235657
4.35776 -0.200172
      </DataArray> 
    </PointData>
    <CellData>
    </CellData>
  </Piece>
  </UnstructuredGrid>
</VTKFile>
