<?xml version="1.0"?>
<VTKFile type="UnstructuredGrid">
  <UnstructuredGrid>
  <Piece NumberOfPoints="28"  NumberOfCells="4">
    <Points>
      <DataArray type="Float64" NumberOfComponents="3" format="ascii">
0 0 0
9.84918 0.520306 0
9.89753 2.51948 0
0 3 0
4.75209 0.30672 0
1.59147 0.204537 0
3.17126 0.281549 0
6.36374 0.280098 0
8.04858 0.328654 0
9.36227 1.13734 0
9.35086 1.8308 0
4.75394 2.71519 0
8.05424 2.6504 0
6.36175 2.70491 0
3.17335 2.72632 0
1.58822 2.8026 0
0 2 0
0 1 0
4.74621 1.08636 0
4.74736 1.90809 0
3.15711 1.91924 0
1.56775 1.05487 0
3.1552 1.08327 0
1.5697 1.94734 0
7.87236 1.91728 0
6.31374 1.08496 0
7.8688 1.10204 0
6.3191 1.92216 0
      </DataArray>
    </Points>
    <Cells>
      <DataArray type="Int32" Name="connectivity" format="ascii">
 0 4 11 5 6 18 19 20 21 22
 11 3 0 14 15 16 17 21 20 23
 4 1 2 7 8 9 10 24 25 26
 2 11 4 12 13 19 18 25 24 27
      </DataArray>
      <DataArray type="Int32" Name="offsets" format="ascii">
10
20
30
40
      </DataArray>
      <DataArray type="UInt8" Name="types" format="ascii">
69
69
69
69
      </DataArray>
    </Cells>
    <PointData>
      <DataArray type="Float64" NumberOfComponents="2" Name="Displacement" format="ascii">
0 0
3.84918 0.520306
3.89753 -0.480519
0 0
1.75209 0.30672
0.591469 0.204537
1.17126 0.281549
2.36374 0.280098
3.04858 0.328654
3.36227 0.137343
3.35086 -0.169201
1.75394 -0.284809
3.05424 -0.349598
2.36175 -0.295085
1.17335 -0.273675
0.588216 -0.197402
0 0
0 0
1.74621 0.0863596
1.74736 -0.0919136
1.15711 -0.0807561
0.567754 0.0548699
1.1552 0.0832709
0.5697 -0.0526565
2.87236 -0.0827204
2.31374 0.0849629
2.8688 0.102038
2.3191 -0.0778384
      </DataArray> 
    </PointData>
    <CellData>
    </CellData>
  </Piece>
  </UnstructuredGrid>
</VTKFile>
