<?xml version="1.0"?>
<VTKFile type="UnstructuredGrid">
  <UnstructuredGrid>
  <Piece NumberOfPoints="28"  NumberOfCells="4">
    <Points>
      <DataArray type="Float64" NumberOfComponents="3" format="ascii">
0 0 0
10.8771 0.647493 0
10.9351 2.38806 0
0 3 0
5.24062 0.423788 0
1.75324 0.264521 0
3.49614 0.378316 0
7.01649 0.410147 0
8.87958 0.46651 0
10.3123 1.17464 0
10.2954 1.79739 0
5.24209 2.60229 0
8.88532 2.50596 0
7.01473 2.57121 0
3.49773 2.63253 0
1.7497 2.74402 0
0 2 0
0 1 0
5.22915 1.11825 0
5.23066 1.87566 0
3.47764 1.89494 0
1.72663 1.06885 0
3.47526 1.10784 0
1.72871 1.93421 0
8.67571 1.8804 0
6.95775 1.12227 0
8.6737 1.14314 0
6.96399 1.88574 0
      </DataArray>
    </Points>
    <Cells>
      <DataArray type="Int32" Name="connectivity" format="ascii">
 0 4 11 5 6 18 19 20 21 22
 11 3 0 14 15 16 17 21 20 23
 4 1 2 7 8 9 10 24 25 26
 2 11 4 12 13 19 18 25 24 27
      </DataArray>
      <DataArray type="Int32" Name="offsets" format="ascii">
10
20
30
40
      </DataArray>
      <DataArray type="UInt8" Name="types" format="ascii">
69
69
69
69
      </DataArray>
    </Cells>
    <PointData>
      <DataArray type="Float64" NumberOfComponents="2" Name="Displacement" format="ascii">
0 0
4.87711 0.647493
4.93512 -0.611937
0 0
2.24062 0.423788
0.753241 0.264521
1.49614 0.378316
3.01649 0.410147
3.87958 0.46651
4.31226 0.17464
4.29543 -0.202614
2.24209 -0.39771
3.88532 -0.494043
3.01473 -0.428792
1.49773 -0.367472
0.749699 -0.255975
0 0
0 0
2.22915 0.118246
2.23066 -0.124336
1.47764 -0.105056
0.726634 0.0688536
1.47526 0.107843
0.728706 -0.0657868
3.67571 -0.119597
2.95775 0.122266
3.6737 0.14314
2.96399 -0.114261
      </DataArray> 
    </PointData>
    <CellData>
    </CellData>
  </Piece>
  </UnstructuredGrid>
</VTKFile>
