<?xml version="1.0"?>
<VTKFile type="UnstructuredGrid">
  <UnstructuredGrid>
  <Piece NumberOfPoints="28"  NumberOfCells="4">
    <Points>
      <DataArray type="Float64" NumberOfComponents="3" format="ascii">
0 0 0
13.9265 1.03686 0
14.0051 1.96878 0
0 3 0
6.69273 0.836884 0
2.23243 0.446051 0
4.46021 0.696599 0
8.95776 0.895214 0
11.3475 0.954624 0
13.154 1.28427 0
13.1226 1.71679 0
6.69362 2.19318 0
11.353 2.01827 0
8.95624 2.09051 0
4.46179 2.32067 0
2.22945 2.56594 0
0 2 0
0 1 0
6.67518 1.21474 0
6.67892 1.77849 0
4.43978 1.82826 0
2.20619 1.11014 0
4.4364 1.17965 0
2.20739 1.89974 0
11.0757 1.75776 0
8.88367 1.23662 0
11.0783 1.26603 0
8.89311 1.7678 0
      </DataArray>
    </Points>
    <Cells>
      <DataArray type="Int32" Name="connectivity" format="ascii">
 0 4 11 5 6 18 19 20 21 22
 11 3 0 14 15 16 17 21 20 23
 4 1 2 7 8 9 10 24 25 26
 2 11 4 12 13 19 18 25 24 27
      </DataArray>
      <DataArray type="Int32" Name="offsets" format="ascii">
10
20
30
40
      </DataArray>
      <DataArray type="UInt8" Name="types" format="ascii">
69
69
69
69
      </DataArray>
    </Cells>
    <PointData>
      <DataArray type="Float64" NumberOfComponents="2" Name="Displacement" format="ascii">
0 0
7.92652 1.03686
8.00506 -1.03122
0 0
3.69273 0.836884
1.23243 0.446051
2.46021 0.696599
4.95776 0.895214
6.34753 0.954624
7.15396 0.284268
7.12257 -0.28321
3.69362 -0.806823
6.35301 -0.981728
4.95624 -0.909491
2.46179 -0.679327
1.22945 -0.43406
0 0
0 0
3.67518 0.214736
3.67892 -0.221509
2.43978 -0.171738
1.20619 0.110143
2.4364 0.179648
1.20739 -0.100262
6.07569 -0.242241
4.88367 0.23662
6.07831 0.266034
4.89311 -0.232202
      </DataArray> 
    </PointData>
    <CellData>
    </CellData>
  </Piece>
  </UnstructuredGrid>
</VTKFile>
