<?xml version="1.0"?>
<VTKFile type="UnstructuredGrid">
  <UnstructuredGrid>
  <Piece NumberOfPoints="28"  NumberOfCells="4">
    <Points>
      <DataArray type="Float64" NumberOfComponents="3" format="ascii">
0 0 0
7.51796 0.235687 0
7.53714 2.793 0
0 3 0
3.65909 0.0972576 0
1.22621 0.0756556 0
2.44254 0.0947768 0
4.89923 0.0691142 0
6.17502 0.0904272 0
7.25341 1.06109 0
7.25274 1.91891 0
3.6613 2.91168 0
6.17929 2.90023 0
4.89636 2.92319 0
2.44519 2.90737 0
1.22459 2.92775 0
0 2 0
0 1 0
3.66459 1.02641 0
3.66492 1.96967 0
2.4398 1.9711 0
1.21433 1.02216 0
2.43917 1.03049 0
1.21519 1.9789 0
6.07998 1.98103 0
4.87496 1.02113 0
6.07484 1.02774 0
4.87738 1.98334 0
      </DataArray>
    </Points>
    <Cells>
      <DataArray type="Int32" Name="connectivity" format="ascii">
 0 4 11 5 6 18 19 20 21 22
 11 3 0 14 15 16 17 21 20 23
 4 1 2 7 8 9 10 24 25 26
 2 11 4 12 13 19 18 25 24 27
      </DataArray>
      <DataArray type="Int32" Name="offsets" format="ascii">
10
20
30
40
      </DataArray>
      <DataArray type="UInt8" Name="types" format="ascii">
69
69
69
69
      </DataArray>
    </Cells>
    <PointData>
      <DataArray type="Float64" NumberOfComponents="2" Name="Displacement" format="ascii">
0 0
1.51796 0.235687
1.53714 -0.207001
0 0
0.659092 0.0972576
0.226207 0.0756556
0.442541 0.0947768
0.899229 0.0691142
1.17502 0.0904272
1.25341 0.0610875
1.25274 -0.0810874
0.661297 -0.0883218
1.17929 -0.0997663
0.896364 -0.0768146
0.445192 -0.0926328
0.224592 -0.0722492
0 0
0 0
0.664588 0.0264054
0.664921 -0.0303258
0.439803 -0.0288957
0.214332 0.0221603
0.439166 0.0304944
0.215191 -0.021102
1.07998 -0.0189745
0.874959 0.0211334
1.07484 0.0277443
0.877377 -0.0166557
      </DataArray> 
    </PointData>
    <CellData>
    </CellData>
  </Piece>
  </UnstructuredGrid>
</VTKFile>
