<?xml version="1.0"?>
<VTKFile type="UnstructuredGrid">
  <UnstructuredGrid>
  <Piece NumberOfPoints="28"  NumberOfCells="4">
    <Points>
      <DataArray type="Float64" NumberOfComponents="3" format="ascii">
0 0 0
13.6587 1.00787 0
13.7358 1.99876 0
0 3 0
6.56496 0.803415 0
2.19027 0.431481 0
4.3754 0.670841 0
8.78703 0.856152 0
11.1307 0.916618 0
12.9034 1.27576 0
12.8732 1.72437 0
6.56586 2.22644 0
11.1362 2.05302 0
8.78544 2.12672 0
4.37693 2.34614 0
2.18722 2.58038 0
0 2 0
0 1 0
6.54725 1.20722 0
6.55077 1.78611 0
4.35444 1.8333 0
2.16353 1.10688 0
4.35114 1.17406 0
2.16481 1.90236 0
10.8641 1.76889 0
8.71364 1.22791 0
10.8663 1.25675 0
8.72279 1.77782 0
      </DataArray>
    </Points>
    <Cells>
      <DataArray type="Int32" Name="connectivity" format="ascii">
 0 4 11 5 6 18 19 20 21 22
 11 3 0 14 15 16 17 21 20 23
 4 1 2 7 8 9 10 24 25 26
 2 11 4 12 13 19 18 25 24 27
      </DataArray>
      <DataArray type="Int32" Name="offsets" format="ascii">
10
20
30
40
      </DataArray>
      <DataArray type="UInt8" Name="types" format="ascii">
69
69
69
69
      </DataArray>
    </Cells>
    <PointData>
      <DataArray type="Float64" NumberOfComponents="2" Name="Displacement" format="ascii">
0 0
7.65869 1.00787
7.73578 -1.00124
0 0
3.56496 0.803415
1.19027 0.431481
2.3754 0.670841
4.78703 0.856152
6.13068 0.916618
6.90341 0.275761
6.87315 -0.275632
3.56586 -0.773564
6.13618 -0.946983
4.78544 -0.873281
2.37693 -0.653857
1.18722 -0.419619
0 0
0 0
3.54725 0.207221
3.55077 -0.213886
2.35444 -0.166697
1.16353 0.106879
2.35114 0.174064
1.16481 -0.0976425
5.86409 -0.231111
4.71364 0.227908
5.86635 0.256745
4.72279 -0.222177
      </DataArray> 
    </PointData>
    <CellData>
    </CellData>
  </Piece>
  </UnstructuredGrid>
</VTKFile>
