<?xml version="1.0"?>
<VTKFile type="UnstructuredGrid">
  <UnstructuredGrid>
  <Piece NumberOfPoints="28"  NumberOfCells="4">
    <Points>
      <DataArray type="Float64" NumberOfComponents="3" format="ascii">
0 0 0
12.7734 0.897784 0
12.8455 2.11647 0
0 3 0
6.14322 0.679845 0
2.05118 0.379326 0
4.09552 0.577363 0
8.22319 0.709425 0
10.4141 0.771997 0
12.0764 1.2462 0
12.0502 1.74648 0
6.1442 2.34912 0
10.4198 2.1911 0
8.22149 2.26716 0
4.09687 2.43802 0
2.04783 2.63167 0
0 2 0
0 1 0
6.12573 1.18048 0
6.1284 1.81315 0
4.07355 1.85132 0
2.02326 1.0951 0
4.07053 1.15402 0
2.02487 1.91166 0
10.1657 1.8053 0
8.15279 1.1967 0
10.1667 1.22349 0
8.16093 1.81187 0
      </DataArray>
    </Points>
    <Cells>
      <DataArray type="Int32" Name="connectivity" format="ascii">
 0 4 11 5 6 18 19 20 21 22
 11 3 0 14 15 16 17 21 20 23
 4 1 2 7 8 9 10 24 25 26
 2 11 4 12 13 19 18 25 24 27
      </DataArray>
      <DataArray type="Int32" Name="offsets" format="ascii">
10
20
30
40
      </DataArray>
      <DataArray type="UInt8" Name="types" format="ascii">
69
69
69
69
      </DataArray>
    </Cells>
    <PointData>
      <DataArray type="Float64" NumberOfComponents="2" Name="Displacement" format="ascii">
0 0
6.77343 0.897784
6.84555 -0.883528
0 0
3.14322 0.679845
1.05118 0.379326
2.09552 0.577363
4.22319 0.709425
5.41414 0.771997
6.07639 0.246196
6.05017 -0.253519
3.1442 -0.650885
5.41979 -0.808899
4.22149 -0.732845
2.09687 -0.561978
1.04783 -0.36833
0 0
0 0
3.12573 0.180475
3.1284 -0.186846
2.07355 -0.14868
1.02326 0.0950981
2.07053 0.154024
1.02487 -0.0883401
5.16573 -0.194704
4.15279 0.1967
5.16667 0.223485
4.16093 -0.188126
      </DataArray> 
    </PointData>
    <CellData>
    </CellData>
  </Piece>
  </UnstructuredGrid>
</VTKFile>
