<?xml version="1.0"?>
<VTKFile type="UnstructuredGrid">
  <UnstructuredGrid>
  <Piece NumberOfPoints="28"  NumberOfCells="4">
    <Points>
      <DataArray type="Float64" NumberOfComponents="3" format="ascii">
0 0 0
10.3925 0.586721 0
10.4462 2.45157 0
0 3 0
5.01015 0.366605 0
1.67699 0.236007 0
3.34293 0.331611 0
6.70855 0.345917 0
8.48768 0.398917 0
9.86364 1.15669 0
9.84935 1.81277 0
5.01179 2.6577 0
8.4934 2.57679 0
6.7067 2.63724 0
3.34473 2.67784 0
1.67355 2.77188 0
0 2 0
0 1 0
5.00121 1.10289 0
5.00253 1.89126 0
3.32632 1.90644 0
1.65157 1.06226 0
3.32416 1.09617 0
1.65361 1.94034 0
8.29649 1.89833 0
6.65376 1.10412 0
8.29373 1.12326 0
6.65958 1.90347 0
      </DataArray>
    </Points>
    <Cells>
      <DataArray type="Int32" Name="connectivity" format="ascii">
 0 4 11 5 6 18 19 20 21 22
 11 3 0 14 15 16 17 21 20 23
 4 1 2 7 8 9 10 24 25 26
 2 11 4 12 13 19 18 25 24 27
      </DataArray>
      <DataArray type="Int32" Name="offsets" format="ascii">
10
20
30
40
      </DataArray>
      <DataArray type="UInt8" Name="types" format="ascii">
69
69
69
69
      </DataArray>
    </Cells>
    <PointData>
      <DataArray type="Float64" NumberOfComponents="2" Name="Displacement" format="ascii">
0 0
4.39252 0.586721
4.44616 -0.548433
0 0
2.01015 0.366605
0.676992 0.236007
1.34293 0.331611
2.70855 0.345917
3.48768 0.398917
3.86364 0.156689
3.84935 -0.187228
2.01179 -0.342304
3.4934 -0.423214
2.7067 -0.362765
1.34473 -0.322165
0.67355 -0.228123
0 0
0 0
2.00121 0.102886
2.00253 -0.108741
1.32632 -0.0935593
0.651568 0.0622583
1.32416 0.096173
0.653614 -0.0596585
3.29649 -0.101671
2.65376 0.104125
3.29373 0.123256
2.65958 -0.096529
      </DataArray> 
    </PointData>
    <CellData>
    </CellData>
  </Piece>
  </UnstructuredGrid>
</VTKFile>
