<?xml version="1.0"?>
<VTKFile type="UnstructuredGrid">
  <UnstructuredGrid>
  <Piece NumberOfPoints="28"  NumberOfCells="4">
    <Points>
      <DataArray type="Float64" NumberOfComponents="3" format="ascii">
0 0 0
14.1832 1.0623 0
14.2631 1.94281 0
0 3 0
6.81527 0.866334 0
2.27289 0.459236 0
4.54157 0.719603 0
9.12146 0.929181 0
11.5554 0.987573 0
13.3942 1.29233 0
13.3618 1.70919 0
6.81615 2.1637 0
11.5609 1.98841 0
9.12003 2.05914 0
4.54319 2.29775 0
2.26996 2.55278 0
0 2 0
0 1 0
6.79791 1.22171 0
6.80185 1.77148 0
4.52168 1.82361 0
2.24716 1.1131 0
4.51823 1.18477 0
2.24828 1.89731 0
11.2786 1.74721 0
9.04674 1.24472 0
11.2815 1.27467 0
9.05643 1.75842 0
      </DataArray>
    </Points>
    <Cells>
      <DataArray type="Int32" Name="connectivity" format="ascii">
 0 4 11 5 6 18 19 20 21 22
 11 3 0 14 15 16 17 21 20 23
 4 1 2 7 8 9 10 24 25 26
 2 11 4 12 13 19 18 25 24 27
      </DataArray>
      <DataArray type="Int32" Name="offsets" format="ascii">
10
20
30
40
      </DataArray>
      <DataArray type="UInt8" Name="types" format="ascii">
69
69
69
69
      </DataArray>
    </Cells>
    <PointData>
      <DataArray type="Float64" NumberOfComponents="2" Name="Displacement" format="ascii">
0 0
8.1832 1.0623
8.26315 -1.05719
0 0
3.81527 0.866334
1.27289 0.459236
2.54157 0.719603
5.12146 0.929181
6.55538 0.987573
7.39418 0.292328
7.36176 -0.290807
3.81615 -0.836302
6.56088 -1.01159
5.12003 -0.940863
2.54319 -0.702246
1.26996 -0.447218
0 0
0 0
3.79791 0.221705
3.80185 -0.228523
2.52168 -0.176389
1.24716 0.113101
2.51823 0.184772
1.24828 -0.102686
6.27859 -0.252788
5.04674 0.244717
6.28152 0.274672
5.05643 -0.241578
      </DataArray> 
    </PointData>
    <CellData>
    </CellData>
  </Piece>
  </UnstructuredGrid>
</VTKFile>
