# vtk DataFile Version 2.0
FEM, Created by Wutzow
ASCII
DATASET UNSTRUCTURED_GRID
POINTS 2380 Float64
0 0 0
10 -9.15028e-07 0
10 0.0177991 0
0 0.0178 0
0.126582 -1.48945e-18 0
0.253165 -5.43157e-18 0
0.379747 -4.46841e-18 0
0.506329 -7.76677e-18 0
0.632911 5.63366e-18 0
0.759494 8.0141e-19 0
0.886076 7.5909e-18 0
1.01266 5.24833e-18 0
1.13924 3.18331e-18 0
1.26582 -3.01668e-18 0
1.39241 5.23828e-18 0
1.51899 4.31041e-18 0
1.64557 6.45779e-18 0
1.77215 -4.27875e-18 0
1.89873 -6.47742e-18 0
2.02532 -2.61208e-18 0
2.1519 -7.38279e-18 0
2.27848 3.76952e-18 0
2.40506 -9.08111e-18 0
2.53165 8.06542e-18 0
2.65823 -2.63959e-18 0
2.78481 -8.43129e-18 0
2.91139 -5.72178e-18 0
3.03797 -8.42358e-18 0
3.16456 8.102e-19 0
3.29114 -4.36295e-18 0
3.41772 2.66963e-18 0
3.5443 1.9701e-18 0
3.67089 8.39627e-18 0
3.79747 -7.76791e-18 0
3.92405 -5.91798e-18 0
4.05063 1.11616e-19 0
4.17722 -8.78435e-19 0
4.3038 2.26562e-18 0
4.43038 4.49745e-18 0
4.55696 -1.32178e-18 0
4.68354 2.8359e-18 0
4.81013 -2.18973e-18 0
4.93671 -7.99256e-20 0
5.06329 2.18936e-19 0
5.18987 2.31115e-18 0
5.31646 2.56003e-18 0
5.44304 -7.51058e-19 0
5.56962 -9.50546e-19 0
5.6962 9.93598e-19 0
5.82278 7.97238e-18 0
5.94937 4.23535e-18 0
6.07595 8.88388e-18 0
6.20253 1.0367e-18 0
6.32911 -1.78537e-18 0
6.4557 -3.1328e-18 0
6.58228 -1.32317e-18 0
6.70886 4.0535e-19 0
6.83544 1.2573e-18 0
6.96203 6.24516e-18 0
7.08861 -6.58316e-19 0
7.21519 -1.11119e-17 0
7.34177 -6.42406e-18 0
7.46835 -5.08294e-18 0
7.59494 2.08316e-18 0
7.72152 -1.33938e-18 0
7.8481 -1.21459e-18 0
7.97468 4.09919e-18 0
8.10127 -3.44938e-18 0
8.22785 -1.12069e-19 0
8.35443 -1.32475e-17 0
8.48101 -4.85557e-18 0
8.60759 -3.35826e-17 0
8.73418 -1.58559e-16 0
8.86076 -3.69552e-15 0
8.98734 -1.83293e-14 0
9.11392 -7.03356e-14 0
9.24051 -3.99429e-13 0
9.36709 -2.20512e-12 0
9.49367 -8.42535e-12 0
9.62025 -8.69345e-12 0
9.74684 6.37149e-11 0
9.87342 -7.26224e-09 0
0.0421941 -9.55097e-19 0
0.0843882 1.79526e-18 0
0.168776 -2.47784e-18 0
0.21097 5.94064e-18 0
0.295359 1.13975e-19 0
0.337553 1.09041e-18 0
0.421941 -1.46092e-18 0
0.464135 3.08395e-18 0
0.548523 -2.45313e-19 0
0.590717 -4.40224e-18 0
0.675105 -2.77444e-19 0
0.7173 2.24041e-18 0
0.801688 1.09665e-18 0
0.843882 -4.31399e-18 0
0.92827 5.07913e-21 0
0.970464 -3.78695e-18 0
1.05485 2.50657e-18 0
1.09705 -7.91366e-18 0
1.18143 6.94189e-19 0
1.22363 8.58558e-18 0
1.30802 -1.99172e-18 0
1.35021 -2.01738e-18 0
1.4346 -7.25607e-19 0
1.47679 -2.4267e-18 0
1.56118 5.25891e-18 0
1.60338 -8.89536e-18 0
1.68776 3.3903e-18 0
1.72996 -4.12728e-19 0
1.81435 2.7202e-18 0
1.85654 4.87594e-18 0
1.94093 4.12146e-18 0
1.98312 1.22008e-18 0
2.06751 3.36303e-18 0
2.1097 6.33158e-18 0
2.19409 2.62797e-18 0
2.23629 -5.68942e-18 0
2.32068 -6.39113e-19 0
2.36287 7.55456e-18 0
2.44726 5.9959e-18 0
2.48945 -1.06762e-17 0
2.57384 -1.21984e-19 0
2.61603 1.68038e-18 0
2.70042 8.59477e-19 0
2.74262 6.10792e-18 0
2.827 1.10664e-18 0
2.8692 2.08784e-18 0
2.95359 -2.49268e-18 0
2.99578 8.63025e-18 0
3.08017 1.3227e-18 0
3.12236 3.16603e-19 0
3.20675 -2.24059e-18 0
3.24895 3.44368e-18 0
3.33333 -7.29659e-19 0
3.37553 -1.7132e-18 0
3.45992 1.70789e-18 0
3.50211 -2.82899e-19 0
3.5865 5.11003e-19 0
3.62869 -4.39865e-18 0
3.71308 -1.16561e-18 0
3.75527 1.38513e-19 0
3.83966 7.52761e-19 0
3.88186 7.29865e-18 0
3.96624 -1.4424e-19 0
4.00844 -6.46949e-19 0
4.09283 1.19204e-18 0
4.13502 -2.24902e-18 0
4.21941 -1.07098e-18 0
4.2616 8.44489e-19 0
4.34599 -1.3089e-18 0
4.38819 -4.32434e-18 0
4.47257 -1.09438e-18 0
4.51477 3.83019e-18 0
4.59916 2.13796e-18 0
4.64135 -2.41472e-18 0
4.72574 5.2504e-19 0
4.76793 -1.22509e-19 0
4.85232 1.30469e-18 0
4.89451 -1.0678e-18 0
4.9789 3.24792e-19 0
5.0211 1.24622e-18 0
5.10549 1.61257e-18 0
5.14768 -1.98264e-18 0
5.23207 -8.15733e-19 0
5.27426 5.42123e-18 0
5.35865 7.46431e-19 0
5.40084 -2.75041e-18 0
5.48523 1.20172e-18 0
5.52743 -1.73218e-19 0
5.61181 -1.42367e-18 0
5.65401 1.8787e-18 0
5.7384 1.22699e-18 0
5.78059 -4.6164e-18 0
5.86498 1.61566e-18 0
5.90717 -1.00057e-19 0
5.99156 -5.15584e-19 0
6.03376 -3.51264e-18 0
6.11814 -1.75504e-18 0
6.16034 -5.20477e-18 0
6.24473 1.12375e-18 0
6.28692 -2.73749e-19 0
6.37131 -9.02208e-19 0
6.4135 7.01023e-19 0
6.49789 -1.41255e-19 0
6.54008 1.90137e-19 0
6.62447 -9.86849e-19 0
6.66667 8.03379e-19 0
6.75105 -2.42594e-18 0
6.79325 3.06952e-18 0
6.87764 -1.96773e-18 0
6.91983 -4.01302e-18 0
7.00422 -3.89858e-18 0
7.04641 -8.88922e-19 0
7.1308 2.56858e-18 0
7.173 6.94448e-18 0
7.25738 4.66934e-18 0
7.29958 2.04665e-18 0
7.38397 1.33645e-18 0
7.42616 6.32836e-18 0
7.51055 1.81428e-18 0
7.55274 -1.77282e-18 0
7.63713 5.07421e-19 0
7.67932 5.60967e-19 0
7.76371 2.61122e-19 0
7.80591 1.37228e-18 0
7.8903 -2.63779e-19 0
7.93249 -1.43853e-18 0
8.01688 -2.43189e-18 0
8.05907 4.74307e-18 0
8.14346 1.44883e-18 0
8.18565 -2.01156e-18 0
8.27004 -9.92275e-19 0
8.31224 1.06403e-17 0
8.39662 1.26835e-18 0
8.43882 5.88856e-19 0
8.52321 1.02261e-18 0
8.5654 5.37309e-17 0
8.64979 -8.55423e-17 0
8.69198 1.33437e-16 0
8.77637 -1.71206e-16 0
8.81857 1.38221e-15 0
8.90295 2.71613e-16 0
8.94515 7.18619e-15 0
9.02954 5.88089e-15 0
9.07173 2.22026e-14 0
9.15612 7.19825e-14 0
9.19831 3.3522e-14 0
9.2827 6.18103e-13 0
9.32489 -2.98055e-13 0
9.40928 5.30251e-12 0
9.45148 -6.32967e-12 0
9.53586 3.89856e-11 0
9.57806 -6.50966e-11 0
9.66245 2.49287e-10 0
9.70464 -4.95304e-10 0
9.78903 1.88548e-09 0
9.83122 -3.86144e-09 0
9.91561 5.65421e-08 0
9.95781 -9.12744e-08 0
10 0.00593244 0
10 0.0118658 0
10 0.00197687 0
10 0.00395466 0
10 0.00791022 0
10 0.00988801 0
10 0.0138436 0
10 0.0158213 0
9.87342 0.0178 0
9.74684 0.0178 0
9.62025 0.0178 0
9.49367 0.0178 0
9.36709 0.0178 0
9.24051 0.0178 0
9.11392 0.0178 0
8.98734 0.0178 0
8.86076 0.0178 0
8.73418 0.0178 0
8.60759 0.0178 0
8.48101 0.0178 0
8.35443 0.0178 0
8.22785 0.0178 0
8.10127 0.0178 0
7.97468 0.0178 0
7.8481 0.0178 0
7.72152 0.0178 0
7.59494 0.0178 0
7.46835 0.0178 0
7.34177 0.0178 0
7.21519 0.0178 0
7.08861 0.0178 0
6.96203 0.0178 0
6.83544 0.0178 0
6.70886 0.0178 0
6.58228 0.0178 0
6.4557 0.0178 0
6.32911 0.0178 0
6.20253 0.0178 0
6.07595 0.0178 0
5.94937 0.0178 0
5.82278 0.0178 0
5.6962 0.0178 0
5.56962 0.0178 0
5.44304 0.0178 0
5.31646 0.0178 0
5.18987 0.0178 0
5.06329 0.0178 0
4.93671 0.0178 0
4.81013 0.0178 0
4.68354 0.0178 0
4.55696 0.0178 0
4.43038 0.0178 0
4.3038 0.0178 0
4.17722 0.0178 0
4.05063 0.0178 0
3.92405 0.0178 0
3.79747 0.0178 0
3.67089 0.0178 0
3.5443 0.0178 0
3.41772 0.0178 0
3.29114 0.0178 0
3.16456 0.0178 0
3.03797 0.0178 0
2.91139 0.0178 0
2.78481 0.0178 0
2.65823 0.0178 0
2.53165 0.0178 0
2.40506 0.0178 0
2.27848 0.0178 0
2.1519 0.0178 0
2.02532 0.0178 0
1.89873 0.0178 0
1.77215 0.0178 0
1.64557 0.0178 0
1.51899 0.0178 0
1.39241 0.0178 0
1.26582 0.0178 0
1.13924 0.0178 0
1.01266 0.0178 0
0.886076 0.0178 0
0.759494 0.0178 0
0.632911 0.0178 0
0.506329 0.0178 0
0.379747 0.0178 0
0.253165 0.0178 0
0.126582 0.0178 0
9.95781 0.0177999 0
9.91561 0.0178001 0
9.83122 0.0178 0
9.78903 0.0178 0
9.70464 0.0178 0
9.66245 0.0178 0
9.57806 0.0178 0
9.53586 0.0178 0
9.45148 0.0178 0
9.40928 0.0178 0
9.32489 0.0178 0
9.2827 0.0178 0
9.19831 0.0178 0
9.15612 0.0178 0
9.07173 0.0178 0
9.02954 0.0178 0
8.94515 0.0178 0
8.90295 0.0178 0
8.81857 0.0178 0
8.77637 0.0178 0
8.69198 0.0178 0
8.64979 0.0178 0
8.5654 0.0178 0
8.52321 0.0178 0
8.43882 0.0178 0
8.39662 0.0178 0
8.31224 0.0178 0
8.27004 0.0178 0
8.18565 0.0178 0
8.14346 0.0178 0
8.05907 0.0178 0
8.01688 0.0178 0
7.93249 0.0178 0
7.8903 0.0178 0
7.80591 0.0178 0
7.76371 0.0178 0
7.67932 0.0178 0
7.63713 0.0178 0
7.55274 0.0178 0
7.51055 0.0178 0
7.42616 0.0178 0
7.38397 0.0178 0
7.29958 0.0178 0
7.25738 0.0178 0
7.173 0.0178 0
7.1308 0.0178 0
7.04641 0.0178 0
7.00422 0.0178 0
6.91983 0.0178 0
6.87764 0.0178 0
6.79325 0.0178 0
6.75105 0.0178 0
6.66667 0.0178 0
6.62447 0.0178 0
6.54008 0.0178 0
6.49789 0.0178 0
6.4135 0.0178 0
6.37131 0.0178 0
6.28692 0.0178 0
6.24473 0.0178 0
6.16034 0.0178 0
6.11814 0.0178 0
6.03376 0.0178 0
5.99156 0.0178 0
5.90717 0.0178 0
5.86498 0.0178 0
5.78059 0.0178 0
5.7384 0.0178 0
5.65401 0.0178 0
5.61181 0.0178 0
5.52743 0.0178 0
5.48523 0.0178 0
5.40084 0.0178 0
5.35865 0.0178 0
5.27426 0.0178 0
5.23207 0.0178 0
5.14768 0.0178 0
5.10549 0.0178 0
5.0211 0.0178 0
4.9789 0.0178 0
4.89451 0.0178 0
4.85232 0.0178 0
4.76793 0.0178 0
4.72574 0.0178 0
4.64135 0.0178 0
4.59916 0.0178 0
4.51477 0.0178 0
4.47257 0.0178 0
4.38819 0.0178 0
4.34599 0.0178 0
4.2616 0.0178 0
4.21941 0.0178 0
4.13502 0.0178 0
4.09283 0.0178 0
4.00844 0.0178 0
3.96624 0.0178 0
3.88186 0.0178 0
3.83966 0.0178 0
3.75527 0.0178 0
3.71308 0.0178 0
3.62869 0.0178 0
3.5865 0.0178 0
3.50211 0.0178 0
3.45992 0.0178 0
3.37553 0.0178 0
3.33333 0.0178 0
3.24895 0.0178 0
3.20675 0.0178 0
3.12236 0.0178 0
3.08017 0.0178 0
2.99578 0.0178 0
2.95359 0.0178 0
2.8692 0.0178 0
2.827 0.0178 0
2.74262 0.0178 0
2.70042 0.0178 0
2.61603 0.0178 0
2.57384 0.0178 0
2.48945 0.0178 0
2.44726 0.0178 0
2.36287 0.0178 0
2.32068 0.0178 0
2.23629 0.0178 0
2.19409 0.0178 0
2.1097 0.0178 0
2.06751 0.0178 0
1.98312 0.0178 0
1.94093 0.0178 0
1.85654 0.0178 0
1.81435 0.0178 0
1.72996 0.0178 0
1.68776 0.0178 0
1.60338 0.0178 0
1.56118 0.0178 0
1.47679 0.0178 0
1.4346 0.0178 0
1.35021 0.0178 0
1.30802 0.0178 0
1.22363 0.0178 0
1.18143 0.0178 0
1.09705 0.0178 0
1.05485 0.0178 0
0.970464 0.0178 0
0.92827 0.0178 0
0.843882 0.0178 0
0.801688 0.0178 0
0.7173 0.0178 0
0.675105 0.0178 0
0.590717 0.0178 0
0.548523 0.0178 0
0.464135 0.0178 0
0.421941 0.0178 0
0.337553 0.0178 0
0.295359 0.0178 0
0.21097 0.0178 0
0.168776 0.0178 0
0.0843882 0.0178 0
0.0421941 0.0178 0
0 0.0118667 0
0 0.00593333 0
0 0.0158222 0
0 0.0138444 0
0 0.00988889 0
0 0.00791111 0
0 0.00395556 0
0 0.00197778 0
0.126582 0.00593333 0
0.126582 0.0118667 0
0.253165 0.00593333 0
0.253165 0.0118667 0
0.379747 0.00593333 0
0.379747 0.0118667 0
0.506329 0.00593333 0
0.506329 0.0118667 0
0.632911 0.00593333 0
0.632911 0.0118667 0
0.759494 0.00593333 0
0.759494 0.0118667 0
0.886076 0.00593333 0
0.886076 0.0118667 0
[...]
CELL_DATA 474
POINT_DATA 2380
VECTORS Y Float64
0 0 0.0
10 -9.15028e-07 0.0
10 0.0177991 0.0
0 0.0178 0.0
0.126582 -1.48945e-18 0.0
0.253165 -5.43157e-18 0.0
0.379747 -4.46841e-18 0.0
0.506329 -7.76677e-18 0.0
0.632911 5.63366e-18 0.0
0.759494 8.0141e-19 0.0
0.886076 7.5909e-18 0.0
1.01266 5.24833e-18 0.0
1.13924 3.18331e-18 0.0
1.26582 -3.01668e-18 0.0
1.39241 5.23828e-18 0.0
1.51899 4.31041e-18 0.0
1.64557 6.45779e-18 0.0
1.77215 -4.27875e-18 0.0
1.89873 -6.47742e-18 0.0
2.02532 -2.61208e-18 0.0
2.1519 -7.38279e-18 0.0
2.27848 3.76952e-18 0.0
2.40506 -9.08111e-18 0.0
2.53165 8.06542e-18 0.0
2.65823 -2.63959e-18 0.0
2.78481 -8.43129e-18 0.0
2.91139 -5.72178e-18 0.0
3.03797 -8.42358e-18 0.0
3.16456 8.102e-19 0.0
3.29114 -4.36295e-18 0.0
3.41772 2.66963e-18 0.0
3.5443 1.9701e-18 0.0
3.67089 8.39627e-18 0.0
3.79747 -7.76791e-18 0.0
3.92405 -5.91798e-18 0.0
4.05063 1.11616e-19 0.0
4.17722 -8.78435e-19 0.0
4.3038 2.26562e-18 0.0
4.43038 4.49745e-18 0.0
4.55696 -1.32178e-18 0.0
4.68354 2.8359e-18 0.0
4.81013 -2.18973e-18 0.0
4.93671 -7.99256e-20 0.0
5.06329 2.18936e-19 0.0
5.18987 2.31115e-18 0.0
5.31646 2.56003e-18 0.0
5.44304 -7.51058e-19 0.0
5.56962 -9.50546e-19 0.0
5.6962 9.93598e-19 0.0
5.82278 7.97238e-18 0.0
5.94937 4.23535e-18 0.0
6.07595 8.88388e-18 0.0
6.20253 1.0367e-18 0.0
6.32911 -1.78537e-18 0.0
6.4557 -3.1328e-18 0.0
6.58228 -1.32317e-18 0.0
6.70886 4.0535e-19 0.0
6.83544 1.2573e-18 0.0
6.96203 6.24516e-18 0.0
7.08861 -6.58316e-19 0.0
7.21519 -1.11119e-17 0.0
7.34177 -6.42406e-18 0.0
7.46835 -5.08294e-18 0.0
7.59494 2.08316e-18 0.0
7.72152 -1.33938e-18 0.0
7.8481 -1.21459e-18 0.0
7.97468 4.09919e-18 0.0
8.10127 -3.44938e-18 0.0
8.22785 -1.12069e-19 0.0
8.35443 -1.32475e-17 0.0
8.48101 -4.85557e-18 0.0
8.60759 -3.35826e-17 0.0
8.73418 -1.58559e-16 0.0
8.86076 -3.69552e-15 0.0
8.98734 -1.83293e-14 0.0
9.11392 -7.03356e-14 0.0
9.24051 -3.99429e-13 0.0
9.36709 -2.20512e-12 0.0
9.49367 -8.42535e-12 0.0
9.62025 -8.69345e-12 0.0
9.74684 6.37149e-11 0.0
9.87342 -7.26224e-09 0.0
0.0421941 -9.55097e-19 0.0
0.0843882 1.79526e-18 0.0
0.168776 -2.47784e-18 0.0
0.21097 5.94064e-18 0.0
0.295359 1.13975e-19 0.0
0.337553 1.09041e-18 0.0
0.421941 -1.46092e-18 0.0
0.464135 3.08395e-18 0.0
0.548523 -2.45313e-19 0.0
0.590717 -4.40224e-18 0.0
0.675105 -2.77444e-19 0.0
0.7173 2.24041e-18 0.0
0.801688 1.09665e-18 0.0
0.843882 -4.31399e-18 0.0
0.92827 5.07913e-21 0.0
0.970464 -3.78695e-18 0.0
1.05485 2.50657e-18 0.0
1.09705 -7.91366e-18 0.0
1.18143 6.94189e-19 0.0
1.22363 8.58558e-18 0.0
1.30802 -1.99172e-18 0.0
1.35021 -2.01738e-18 0.0
1.4346 -7.25607e-19 0.0
1.47679 -2.4267e-18 0.0
1.56118 5.25891e-18 0.0
1.60338 -8.89536e-18 0.0
1.68776 3.3903e-18 0.0
1.72996 -4.12728e-19 0.0
1.81435 2.7202e-18 0.0
1.85654 4.87594e-18 0.0
1.94093 4.12146e-18 0.0
1.98312 1.22008e-18 0.0
2.06751 3.36303e-18 0.0
2.1097 6.33158e-18 0.0
2.19409 2.62797e-18 0.0
2.23629 -5.68942e-18 0.0
2.32068 -6.39113e-19 0.0
2.36287 7.55456e-18 0.0
2.44726 5.9959e-18 0.0
2.48945 -1.06762e-17 0.0
2.57384 -1.21984e-19 0.0
2.61603 1.68038e-18 0.0
2.70042 8.59477e-19 0.0
2.74262 6.10792e-18 0.0
2.827 1.10664e-18 0.0
2.8692 2.08784e-18 0.0
2.95359 -2.49268e-18 0.0
2.99578 8.63025e-18 0.0
3.08017 1.3227e-18 0.0
3.12236 3.16603e-19 0.0
3.20675 -2.24059e-18 0.0
3.24895 3.44368e-18 0.0
3.33333 -7.29659e-19 0.0
3.37553 -1.7132e-18 0.0
3.45992 1.70789e-18 0.0
3.50211 -2.82899e-19 0.0
3.5865 5.11003e-19 0.0
3.62869 -4.39865e-18 0.0
3.71308 -1.16561e-18 0.0
3.75527 1.38513e-19 0.0
3.83966 7.52761e-19 0.0
3.88186 7.29865e-18 0.0
3.96624 -1.4424e-19 0.0
4.00844 -6.46949e-19 0.0
4.09283 1.19204e-18 0.0
4.13502 -2.24902e-18 0.0
4.21941 -1.07098e-18 0.0
4.2616 8.44489e-19 0.0
4.34599 -1.3089e-18 0.0
4.38819 -4.32434e-18 0.0
4.47257 -1.09438e-18 0.0
4.51477 3.83019e-18 0.0
4.59916 2.13796e-18 0.0
4.64135 -2.41472e-18 0.0
4.72574 5.2504e-19 0.0
4.76793 -1.22509e-19 0.0
4.85232 1.30469e-18 0.0
4.89451 -1.0678e-18 0.0
4.9789 3.24792e-19 0.0
5.0211 1.24622e-18 0.0
5.10549 1.61257e-18 0.0
5.14768 -1.98264e-18 0.0
5.23207 -8.15733e-19 0.0
5.27426 5.42123e-18 0.0
5.35865 7.46431e-19 0.0
5.40084 -2.75041e-18 0.0
5.48523 1.20172e-18 0.0
5.52743 -1.73218e-19 0.0
5.61181 -1.42367e-18 0.0
5.65401 1.8787e-18 0.0
5.7384 1.22699e-18 0.0
5.78059 -4.6164e-18 0.0
5.86498 1.61566e-18 0.0
5.90717 -1.00057e-19 0.0
5.99156 -5.15584e-19 0.0
6.03376 -3.51264e-18 0.0
6.11814 -1.75504e-18 0.0
6.16034 -5.20477e-18 0.0
6.24473 1.12375e-18 0.0
6.28692 -2.73749e-19 0.0
6.37131 -9.02208e-19 0.0
6.4135 7.01023e-19 0.0
6.49789 -1.41255e-19 0.0
6.54008 1.90137e-19 0.0
6.62447 -9.86849e-19 0.0
6.66667 8.03379e-19 0.0
6.75105 -2.42594e-18 0.0
6.79325 3.06952e-18 0.0
6.87764 -1.96773e-18 0.0
6.91983 -4.01302e-18 0.0
7.00422 -3.89858e-18 0.0
7.04641 -8.88922e-19 0.0
7.1308 2.56858e-18 0.0
7.173 6.94448e-18 0.0
7.25738 4.66934e-18 0.0
7.29958 2.04665e-18 0.0
7.38397 1.33645e-18 0.0
7.42616 6.32836e-18 0.0
7.51055 1.81428e-18 0.0
7.55274 -1.77282e-18 0.0
7.63713 5.07421e-19 0.0
7.67932 5.60967e-19 0.0
7.76371 2.61122e-19 0.0
7.80591 1.37228e-18 0.0
7.8903 -2.63779e-19 0.0
7.93249 -1.43853e-18 0.0
8.01688 -2.43189e-18 0.0
8.05907 4.74307e-18 0.0
8.14346 1.44883e-18 0.0
8.18565 -2.01156e-18 0.0
8.27004 -9.92275e-19 0.0
8.31224 1.06403e-17 0.0
8.39662 1.26835e-18 0.0
8.43882 5.88856e-19 0.0
8.52321 1.02261e-18 0.0
8.5654 5.37309e-17 0.0
8.64979 -8.55423e-17 0.0
8.69198 1.33437e-16 0.0
8.77637 -1.71206e-16 0.0
8.81857 1.38221e-15 0.0
8.90295 2.71613e-16 0.0
8.94515 7.18619e-15 0.0
9.02954 5.88089e-15 0.0
9.07173 2.22026e-14 0.0
9.15612 7.19825e-14 0.0
9.19831 3.3522e-14 0.0
9.2827 6.18103e-13 0.0
9.32489 -2.98055e-13 0.0
9.40928 5.30251e-12 0.0
9.45148 -6.32967e-12 0.0
9.53586 3.89856e-11 0.0
9.57806 -6.50966e-11 0.0
9.66245 2.49287e-10 0.0
9.70464 -4.95304e-10 0.0
9.78903 1.88548e-09 0.0
9.83122 -3.86144e-09 0.0
9.91561 5.65421e-08 0.0
9.95781 -9.12744e-08 0.0
10 0.00593244 0.0
10 0.0118658 0.0
10 0.00197687 0.0
10 0.00395466 0.0
10 0.00791022 0.0
10 0.00988801 0.0
10 0.0138436 0.0
10 0.0158213 0.0
9.87342 0.0178 0.0
9.74684 0.0178 0.0
9.62025 0.0178 0.0
9.49367 0.0178 0.0
9.36709 0.0178 0.0
9.24051 0.0178 0.0
9.11392 0.0178 0.0
8.98734 0.0178 0.0
8.86076 0.0178 0.0
8.73418 0.0178 0.0
8.60759 0.0178 0.0
8.48101 0.0178 0.0
8.35443 0.0178 0.0
8.22785 0.0178 0.0
8.10127 0.0178 0.0
7.97468 0.0178 0.0
7.8481 0.0178 0.0
7.72152 0.0178 0.0
7.59494 0.0178 0.0
7.46835 0.0178 0.0
7.34177 0.0178 0.0
7.21519 0.0178 0.0
7.08861 0.0178 0.0
6.96203 0.0178 0.0
6.83544 0.0178 0.0
6.70886 0.0178 0.0
6.58228 0.0178 0.0
6.4557 0.0178 0.0
6.32911 0.0178 0.0
6.20253 0.0178 0.0
6.07595 0.0178 0.0
5.94937 0.0178 0.0
5.82278 0.0178 0.0
5.6962 0.0178 0.0
5.56962 0.0178 0.0
5.44304 0.0178 0.0
5.31646 0.0178 0.0
5.18987 0.0178 0.0
5.06329 0.0178 0.0
4.93671 0.0178 0.0
4.81013 0.0178 0.0
4.68354 0.0178 0.0
4.55696 0.0178 0.0
4.43038 0.0178 0.0
4.3038 0.0178 0.0
4.17722 0.0178 0.0
4.05063 0.0178 0.0
3.92405 0.0178 0.0
3.79747 0.0178 0.0
3.67089 0.0178 0.0
3.5443 0.0178 0.0
3.41772 0.0178 0.0
3.29114 0.0178 0.0
3.16456 0.0178 0.0
3.03797 0.0178 0.0
2.91139 0.0178 0.0
2.78481 0.0178 0.0
2.65823 0.0178 0.0
2.53165 0.0178 0.0
2.40506 0.0178 0.0
2.27848 0.0178 0.0
2.1519 0.0178 0.0
2.02532 0.0178 0.0
1.89873 0.0178 0.0
1.77215 0.0178 0.0
1.64557 0.0178 0.0
1.51899 0.0178 0.0
1.39241 0.0178 0.0
1.26582 0.0178 0.0
1.13924 0.0178 0.0
1.01266 0.0178 0.0
0.886076 0.0178 0.0
0.759494 0.0178 0.0
0.632911 0.0178 0.0
0.506329 0.0178 0.0
0.379747 0.0178 0.0
0.253165 0.0178 0.0
0.126582 0.0178 0.0
9.95781 0.0177999 0.0
9.91561 0.0178001 0.0
9.83122 0.0178 0.0
9.78903 0.0178 0.0
9.70464 0.0178 0.0
9.66245 0.0178 0.0
9.57806 0.0178 0.0
9.53586 0.0178 0.0
9.45148 0.0178 0.0
9.40928 0.0178 0.0
9.32489 0.0178 0.0
9.2827 0.0178 0.0
9.19831 0.0178 0.0
9.15612 0.0178 0.0
9.07173 0.0178 0.0
9.02954 0.0178 0.0
8.94515 0.0178 0.0
8.90295 0.0178 0.0
8.81857 0.0178 0.0
8.77637 0.0178 0.0
8.69198 0.0178 0.0
8.64979 0.0178 0.0
8.5654 0.0178 0.0
8.52321 0.0178 0.0
8.43882 0.0178 0.0
8.39662 0.0178 0.0
8.31224 0.0178 0.0
8.27004 0.0178 0.0
8.18565 0.0178 0.0
8.14346 0.0178 0.0
8.05907 0.0178 0.0
8.01688 0.0178 0.0
7.93249 0.0178 0.0
7.8903 0.0178 0.0
7.80591 0.0178 0.0
7.76371 0.0178 0.0
7.67932 0.0178 0.0
7.63713 0.0178 0.0
7.55274 0.0178 0.0
7.51055 0.0178 0.0
7.42616 0.0178 0.0
7.38397 0.0178 0.0
7.29958 0.0178 0.0
7.25738 0.0178 0.0
7.173 0.0178 0.0
7.1308 0.0178 0.0
7.04641 0.0178 0.0
7.00422 0.0178 0.0
6.91983 0.0178 0.0
6.87764 0.0178 0.0
6.79325 0.0178 0.0
6.75105 0.0178 0.0
6.66667 0.0178 0.0
6.62447 0.0178 0.0
6.54008 0.0178 0.0
6.49789 0.0178 0.0
6.4135 0.0178 0.0
6.37131 0.0178 0.0
6.28692 0.0178 0.0
6.24473 0.0178 0.0
6.16034 0.0178 0.0
6.11814 0.0178 0.0
6.03376 0.0178 0.0
5.99156 0.0178 0.0
5.90717 0.0178 0.0
5.86498 0.0178 0.0
5.78059 0.0178 0.0
5.7384 0.0178 0.0
5.65401 0.0178 0.0
5.61181 0.0178 0.0
5.52743 0.0178 0.0
5.48523 0.0178 0.0
5.40084 0.0178 0.0
5.35865 0.0178 0.0
5.27426 0.0178 0.0
5.23207 0.0178 0.0
5.14768 0.0178 0.0
5.10549 0.0178 0.0
5.0211 0.0178 0.0
4.9789 0.0178 0.0
4.89451 0.0178 0.0
4.85232 0.0178 0.0
4.76793 0.0178 0.0
4.72574 0.0178 0.0
4.64135 0.0178 0.0
4.59916 0.0178 0.0
4.51477 0.0178 0.0
4.47257 0.0178 0.0
4.38819 0.0178 0.0
4.34599 0.0178 0.0
4.2616 0.0178 0.0
4.21941 0.0178 0.0
4.13502 0.0178 0.0
4.09283 0.0178 0.0
4.00844 0.0178 0.0
3.96624 0.0178 0.0
3.88186 0.0178 0.0
3.83966 0.0178 0.0
3.75527 0.0178 0.0
3.71308 0.0178 0.0
3.62869 0.0178 0.0
3.5865 0.0178 0.0
3.50211 0.0178 0.0
3.45992 0.0178 0.0
3.37553 0.0178 0.0
3.33333 0.0178 0.0
3.24895 0.0178 0.0
3.20675 0.0178 0.0
3.12236 0.0178 0.0
3.08017 0.0178 0.0
2.99578 0.0178 0.0
2.95359 0.0178 0.0
2.8692 0.0178 0.0
2.827 0.0178 0.0
2.74262 0.0178 0.0
2.70042 0.0178 0.0
2.61603 0.0178 0.0
2.57384 0.0178 0.0
2.48945 0.0178 0.0
2.44726 0.0178 0.0
2.36287 0.0178 0.0
2.32068 0.0178 0.0
2.23629 0.0178 0.0
2.19409 0.0178 0.0
2.1097 0.0178 0.0
2.06751 0.0178 0.0
1.98312 0.0178 0.0
1.94093 0.0178 0.0
1.85654 0.0178 0.0
1.81435 0.0178 0.0
1.72996 0.0178 0.0
1.68776 0.0178 0.0
1.60338 0.0178 0.0
1.56118 0.0178 0.0
1.47679 0.0178 0.0
1.4346 0.0178 0.0
1.35021 0.0178 0.0
1.30802 0.0178 0.0
1.22363 0.0178 0.0
1.18143 0.0178 0.0
1.09705 0.0178 0.0
1.05485 0.0178 0.0
0.970464 0.0178 0.0
0.92827 0.0178 0.0
0.843882 0.0178 0.0
0.801688 0.0178 0.0
0.7173 0.0178 0.0
0.675105 0.0178 0.0
0.590717 0.0178 0.0
0.548523 0.0178 0.0
0.464135 0.0178 0.0
0.421941 0.0178 0.0
0.337553 0.0178 0.0
0.295359 0.0178 0.0
0.21097 0.0178 0.0
0.168776 0.0178 0.0
0.0843882 0.0178 0.0
0.0421941 0.0178 0.0
0 0.0118667 0.0
0 0.00593333 0.0
0 0.0158222 0.0
0 0.0138444 0.0
0 0.00988889 0.0
0 0.00791111 0.0
0 0.00395556 0.0
0 0.00197778 0.0
0.126582 0.00593333 0.0
0.126582 0.0118667 0.0
0.253165 0.00593333 0.0
0.253165 0.0118667 0.0
0.379747 0.00593333 0.0
0.379747 0.0118667 0.0
0.506329 0.00593333 0.0
0.506329 0.0118667 0.0
0.632911 0.00593333 0.0
0.632911 0.0118667 0.0
0.759494 0.00593333 0.0
0.759494 0.0118667 0.0
0.886076 0.00593333 0.0
0.886076 0.0118667 0.0
1.01266 0.00593333 0.0
1.01266 0.0118667 0.0
1.13924 0.00593333 0.0
1.13924 0.0118667 0.0
1.26582 0.00593333 0.0
1.26582 0.0118667 0.0
1.39241 0.00593333 0.0
1.39241 0.0118667 0.0
1.51899 0.00593333 0.0
1.51899 0.0118667 0.0
1.64557 0.00593333 0.0
1.64557 0.0118667 0.0
1.77215 0.00593333 0.0
1.77215 0.0118667 0.0
1.89873 0.00593333 0.0
1.89873 0.0118667 0.0
2.02532 0.00593333 0.0
2.02532 0.0118667 0.0
2.1519 0.00593333 0.0
2.1519 0.0118667 0.0
2.27848 0.00593333 0.0
2.27848 0.0118667 0.0
2.40506 0.00593333 0.0
2.40506 0.0118667 0.0
2.53165 0.00593333 0.0
2.53165 0.0118667 0.0
2.65823 0.00593333 0.0
2.65823 0.0118667 0.0
2.78481 0.00593333 0.0
2.78481 0.0118667 0.0
2.91139 0.00593333 0.0
2.91139 0.0118667 0.0
3.03797 0.00593333 0.0
3.03797 0.0118667 0.0
3.16456 0.00593333 0.0
3.16456 0.0118667 0.0
3.29114 0.00593333 0.0
3.29114 0.0118667 0.0
3.41772 0.00593333 0.0
3.41772 0.0118667 0.0
3.5443 0.00593333 0.0
3.5443 0.0118667 0.0
3.67089 0.00593333 0.0
3.67089 0.0118667 0.0
3.79747 0.00593333 0.0
3.79747 0.0118667 0.0
3.92405 0.00593333 0.0
3.92405 0.0118667 0.0
4.05063 0.00593333 0.0
4.05063 0.0118667 0.0
4.17722 0.00593333 0.0
4.17722 0.0118667 0.0
4.3038 0.00593333 0.0
4.3038 0.0118667 0.0
4.43038 0.00593333 0.0
4.43038 0.0118667 0.0
4.55696 0.00593333 0.0
4.55696 0.0118667 0.0
4.68354 0.00593333 0.0
4.68354 0.0118667 0.0
4.81013 0.00593333 0.0
4.81013 0.0118667 0.0
4.93671 0.00593333 0.0
4.93671 0.0118667 0.0
5.06329 0.00593333 0.0
5.06329 0.0118667 0.0
5.18987 0.00593333 0.0
5.18987 0.0118667 0.0
5.31646 0.00593333 0.0
5.31646 0.0118667 0.0
5.44304 0.00593333 0.0
5.44304 0.0118667 0.0
5.56962 0.00593333 0.0
5.56962 0.0118667 0.0
5.6962 0.00593333 0.0
5.6962 0.0118667 0.0
5.82278 0.00593333 0.0
5.82278 0.0118667 0.0
5.94937 0.00593333 0.0
5.94937 0.0118667 0.0
6.07595 0.00593333 0.0
6.07595 0.0118667 0.0
6.20253 0.00593333 0.0
6.20253 0.0118667 0.0
6.32911 0.00593333 0.0
6.32911 0.0118667 0.0
6.4557 0.00593333 0.0
6.4557 0.0118667 0.0
6.58228 0.00593333 0.0
6.58228 0.0118667 0.0
6.70886 0.00593333 0.0
6.70886 0.0118667 0.0
6.83544 0.00593333 0.0
6.83544 0.0118667 0.0
6.96203 0.00593333 0.0
6.96203 0.0118667 0.0
7.08861 0.00593333 0.0
7.08861 0.0118667 0.0
7.21519 0.00593333 0.0
7.21519 0.0118667 0.0
7.34177 0.00593333 0.0
7.34177 0.0118667 0.0
7.46835 0.00593333 0.0
7.46835 0.0118667 0.0
7.59494 0.00593333 0.0
7.59494 0.0118667 0.0
7.72152 0.00593333 0.0
7.72152 0.0118667 0.0
7.8481 0.00593333 0.0
7.8481 0.0118667 0.0
7.97468 0.00593333 0.0
7.97468 0.0118667 0.0
8.10127 0.00593333 0.0
8.10127 0.0118667 0.0
8.22785 0.00593333 0.0
8.22785 0.0118667 0.0
8.35443 0.00593333 0.0
8.35443 0.0118667 0.0
8.48101 0.00593333 0.0
8.48101 0.0118667 0.0
8.60759 0.00593333 0.0
8.60759 0.0118667 0.0
8.73418 0.00593333 0.0
8.73418 0.0118667 0.0
8.86076 0.00593333 0.0
8.86076 0.0118667 0.0
8.98734 0.00593333 0.0
8.98734 0.0118667 0.0
9.11392 0.00593333 0.0
9.11392 0.0118667 0.0
9.24051 0.00593333 0.0
9.24051 0.0118667 0.0
9.36709 0.00593333 0.0
9.36709 0.0118667 0.0
9.49367 0.00593333 0.0
9.49367 0.0118667 0.0
9.62025 0.00593333 0.0
9.62025 0.0118667 0.0
9.74684 0.00593333 0.0
9.74684 0.0118667 0.0
9.87342 0.00593333 0.0
9.87342 0.0118667 0.0
0.0843882 0.00197778 0.0
0.0421941 0.00395556 0.0
0.0421941 0.00197778 0.0
0.126582 0.00197778 0.0
0.126582 0.00395556 0.0
0.0843882 0.00593333 0.0
0.0421941 0.00593333 0.0
0.0843882 0.00395556 0.0
0.0843882 0.00791111 0.0
0.0421941 0.00988889 0.0
0.0421941 0.00791111 0.0
0.126582 0.00791111 0.0
0.126582 0.00988889 0.0
0.0843882 0.0118667 0.0
0.0421941 0.0118667 0.0
0.0843882 0.00988889 0.0
0.0843882 0.0138444 0.0
0.0421941 0.0158222 0.0
0.0421941 0.0138444 0.0
0.126582 0.0138444 0.0
0.126582 0.0158222 0.0
0.0843882 0.0158222 0.0
0.21097 0.00197778 0.0
0.168776 0.00395556 0.0
0.168776 0.00197778 0.0
0.253165 0.00197778 0.0
0.253165 0.00395556 0.0
0.21097 0.00593333 0.0
0.168776 0.00593333 0.0
0.21097 0.00395556 0.0
0.21097 0.00791111 0.0
0.168776 0.00988889 0.0
0.168776 0.00791111 0.0
0.253165 0.00791111 0.0
0.253165 0.00988889 0.0
0.21097 0.0118667 0.0
0.168776 0.0118667 0.0
0.21097 0.00988889 0.0
0.21097 0.0138444 0.0
0.168776 0.0158222 0.0
0.168776 0.0138444 0.0
0.253165 0.0138444 0.0
0.253165 0.0158222 0.0
0.21097 0.0158222 0.0
0.337553 0.00197778 0.0
0.295359 0.00395556 0.0
0.295359 0.00197778 0.0
0.379747 0.00197778 0.0
0.379747 0.00395556 0.0
0.337553 0.00593333 0.0
0.295359 0.00593333 0.0
0.337553 0.00395556 0.0
0.337553 0.00791111 0.0
0.295359 0.00988889 0.0
0.295359 0.00791111 0.0
0.379747 0.00791111 0.0
0.379747 0.00988889 0.0
0.337553 0.0118667 0.0
0.295359 0.0118667 0.0
0.337553 0.00988889 0.0
0.337553 0.0138444 0.0
0.295359 0.0158222 0.0
0.295359 0.0138444 0.0
0.379747 0.0138444 0.0
0.379747 0.0158222 0.0
0.337553 0.0158222 0.0
0.464135 0.00197778 0.0
0.421941 0.00395556 0.0
0.421941 0.00197778 0.0
0.506329 0.00197778 0.0
0.506329 0.00395556 0.0
0.464135 0.00593333 0.0
0.421941 0.00593333 0.0
0.464135 0.00395556 0.0
0.464135 0.00791111 0.0
0.421941 0.00988889 0.0
0.421941 0.00791111 0.0
0.506329 0.00791111 0.0
0.506329 0.00988889 0.0
0.464135 0.0118667 0.0
0.421941 0.0118667 0.0
0.464135 0.00988889 0.0
0.464135 0.0138444 0.0
0.421941 0.0158222 0.0
0.421941 0.0138444 0.0
0.506329 0.0138444 0.0
0.506329 0.0158222 0.0
0.464135 0.0158222 0.0
0.590717 0.00197778 0.0
0.548523 0.00395556 0.0
0.548523 0.00197778 0.0
0.632911 0.00197778 0.0
0.632911 0.00395556 0.0
0.590717 0.00593333 0.0
0.548523 0.00593333 0.0
0.590717 0.00395556 0.0
0.590717 0.00791111 0.0
0.548523 0.00988889 0.0
0.548523 0.00791111 0.0
0.632911 0.00791111 0.0
0.632911 0.00988889 0.0
0.590717 0.0118667 0.0
0.548523 0.0118667 0.0
0.590717 0.00988889 0.0
0.590717 0.0138444 0.0
0.548523 0.0158222 0.0
0.548523 0.0138444 0.0
0.632911 0.0138444 0.0
0.632911 0.0158222 0.0
0.590717 0.0158222 0.0
0.7173 0.00197778 0.0
0.675105 0.00395556 0.0
0.675105 0.00197778 0.0
0.759494 0.00197778 0.0
0.759494 0.00395556 0.0
0.7173 0.00593333 0.0
0.675105 0.00593333 0.0
0.7173 0.00395556 0.0
0.7173 0.00791111 0.0
0.675105 0.00988889 0.0
0.675105 0.00791111 0.0
0.759494 0.00791111 0.0
0.759494 0.00988889 0.0
0.7173 0.0118667 0.0
0.675105 0.0118667 0.0
0.7173 0.00988889 0.0
0.7173 0.0138444 0.0
0.675105 0.0158222 0.0
0.675105 0.0138444 0.0
0.759494 0.0138444 0.0
0.759494 0.0158222 0.0
0.7173 0.0158222 0.0
0.843882 0.00197778 0.0
0.801688 0.00395556 0.0
0.801688 0.00197778 0.0
0.886076 0.00197778 0.0
0.886076 0.00395556 0.0
0.843882 0.00593333 0.0
0.801688 0.00593333 0.0
0.843882 0.00395556 0.0
0.843882 0.00791111 0.0
0.801688 0.00988889 0.0
0.801688 0.00791111 0.0
0.886076 0.00791111 0.0
0.886076 0.00988889 0.0
0.843882 0.0118667 0.0
0.801688 0.0118667 0.0
0.843882 0.00988889 0.0
0.843882 0.0138444 0.0
0.801688 0.0158222 0.0
0.801688 0.0138444 0.0
0.886076 0.0138444 0.0
0.886076 0.0158222 0.0
0.843882 0.0158222 0.0
0.970464 0.00197778 0.0
0.92827 0.00395556 0.0
0.92827 0.00197778 0.0
1.01266 0.00197778 0.0
1.01266 0.00395556 0.0
0.970464 0.00593333 0.0
0.92827 0.00593333 0.0
0.970464 0.00395556 0.0
0.970464 0.00791111 0.0
0.92827 0.00988889 0.0
0.92827 0.00791111 0.0
1.01266 0.00791111 0.0
1.01266 0.00988889 0.0
0.970464 0.0118667 0.0
0.92827 0.0118667 0.0
0.970464 0.00988889 0.0
0.970464 0.0138444 0.0
0.92827 0.0158222 0.0
0.92827 0.0138444 0.0
1.01266 0.0138444 0.0
1.01266 0.0158222 0.0
0.970464 0.0158222 0.0
1.09705 0.00197778 0.0
1.05485 0.00395556 0.0
1.05485 0.00197778 0.0
1.13924 0.00197778 0.0
1.13924 0.00395556 0.0
1.09705 0.00593333 0.0
1.05485 0.00593333 0.0
1.09705 0.00395556 0.0
1.09705 0.00791111 0.0
1.05485 0.00988889 0.0
1.05485 0.00791111 0.0
1.13924 0.00791111 0.0
1.13924 0.00988889 0.0
1.09705 0.0118667 0.0
1.05485 0.0118667 0.0
1.09705 0.00988889 0.0
1.09705 0.0138444 0.0
1.05485 0.0158222 0.0
1.05485 0.0138444 0.0
1.13924 0.0138444 0.0
1.13924 0.0158222 0.0
1.09705 0.0158222 0.0
1.22363 0.00197778 0.0
1.18143 0.00395556 0.0
1.18143 0.00197778 0.0
1.26582 0.00197778 0.0
1.26582 0.00395556 0.0
1.22363 0.00593333 0.0
1.18143 0.00593333 0.0
1.22363 0.00395556 0.0
1.22363 0.00791111 0.0
1.18143 0.00988889 0.0
1.18143 0.00791111 0.0
1.26582 0.00791111 0.0
1.26582 0.00988889 0.0
1.22363 0.0118667 0.0
1.18143 0.0118667 0.0
1.22363 0.00988889 0.0
1.22363 0.0138444 0.0
1.18143 0.0158222 0.0
1.18143 0.0138444 0.0
1.26582 0.0138444 0.0
1.26582 0.0158222 0.0
1.22363 0.0158222 0.0
1.35021 0.00197778 0.0
1.30802 0.00395556 0.0
1.30802 0.00197778 0.0
1.39241 0.00197778 0.0
1.39241 0.00395556 0.0
1.35021 0.00593333 0.0
1.30802 0.00593333 0.0
1.35021 0.00395556 0.0
1.35021 0.00791111 0.0
1.30802 0.00988889 0.0
1.30802 0.00791111 0.0
1.39241 0.00791111 0.0
1.39241 0.00988889 0.0
1.35021 0.0118667 0.0
1.30802 0.0118667 0.0
1.35021 0.00988889 0.0
1.35021 0.0138444 0.0
1.30802 0.0158222 0.0
1.30802 0.0138444 0.0
1.39241 0.0138444 0.0
1.39241 0.0158222 0.0
1.35021 0.0158222 0.0
1.47679 0.00197778 0.0
1.4346 0.00395556 0.0
1.4346 0.00197778 0.0
1.51899 0.00197778 0.0
1.51899 0.00395556 0.0
1.47679 0.00593333 0.0
1.4346 0.00593333 0.0
1.47679 0.00395556 0.0
1.47679 0.00791111 0.0
1.4346 0.00988889 0.0