# vtk DataFile Version 2.0
FEM, Created by Wutzow
ASCII
DATASET UNSTRUCTURED_GRID
POINTS 2380 Float64
0 0 0
10 -1.83792e-07 0
10 0.0177998 0
0 0.0178 0
0.126582 -5.12074e-18 0
0.253165 -3.58943e-18 0
0.379747 -2.46292e-18 0
0.506329 -3.01487e-18 0
0.632911 4.99191e-18 0
0.759494 -7.11418e-19 0
0.886076 5.85843e-18 0
1.01266 3.656e-18 0
1.13924 6.49674e-18 0
1.26582 -2.00519e-18 0
1.39241 1.06467e-18 0
1.51899 1.04235e-18 0
1.64557 7.74077e-18 0
1.77215 -4.56815e-19 0
1.89873 -4.60113e-18 0
2.02532 -7.50418e-19 0
2.1519 -4.09649e-18 0
2.27848 4.37526e-18 0
2.40506 -8.0133e-18 0
2.53165 6.72816e-18 0
2.65823 -1.81497e-18 0
2.78481 -5.79845e-18 0
2.91139 -2.72896e-18 0
3.03797 -1.01607e-17 0
3.16456 -6.0098e-19 0
3.29114 -3.12993e-18 0
3.41772 2.08658e-18 0
3.5443 1.77686e-18 0
3.67089 7.19226e-18 0
3.79747 -2.63911e-18 0
3.92405 -9.32305e-18 0
4.05063 -2.68715e-18 0
4.17722 -5.47681e-19 0
4.3038 9.59406e-19 0
4.43038 2.02665e-18 0
4.55696 -4.10623e-18 0
4.68354 8.63803e-19 0
4.81013 -5.11387e-19 0
4.93671 -1.51239e-19 0
5.06329 -2.1119e-18 0
5.18987 1.86455e-18 0
5.31646 -3.44383e-18 0
5.44304 1.29371e-18 0
5.56962 -1.00939e-18 0
5.6962 -1.09681e-18 0
5.82278 5.58837e-18 0
5.94937 2.19729e-18 0
6.07595 3.91526e-18 0
6.20253 2.52458e-18 0
6.32911 9.88461e-19 0
6.4557 -1.78328e-18 0
6.58228 -1.45269e-18 0
6.70886 1.77079e-18 0
6.83544 -2.95997e-18 0
6.96203 3.07683e-18 0
7.08861 -1.05819e-18 0
7.21519 -6.07728e-18 0
7.34177 -3.08115e-18 0
7.46835 -3.54468e-18 0
7.59494 1.02953e-18 0
7.72152 -7.12843e-19 0
7.8481 -4.92134e-19 0
7.97468 1.38654e-18 0
8.10127 -3.61422e-18 0
8.22785 -4.87705e-19 0
8.35443 -9.91897e-18 0
8.48101 -9.44287e-19 0
8.60759 -2.33384e-18 0
8.73418 1.02416e-17 0
8.86076 2.81091e-17 0
8.98734 -2.19502e-16 0
9.11392 2.38295e-15 0
9.24051 -1.36105e-14 0
9.36709 2.37905e-15 0
9.49367 -1.34525e-12 0
9.62025 -2.26849e-11 0
9.74684 -2.52522e-10 0
9.87342 -3.53069e-09 0
0.0421941 -7.29206e-19 0
0.0843882 5.3429e-18 0
0.168776 -6.30548e-19 0
0.21097 3.67256e-18 0
0.295359 3.64781e-19 0
0.337553 1.58331e-18 0
0.421941 5.78001e-19 0
0.464135 1.1121e-18 0
0.548523 1.95627e-18 0
0.590717 -3.43882e-18 0
0.675105 -1.61522e-18 0
0.7173 4.18722e-19 0
0.801688 1.39827e-18 0
0.843882 -3.90212e-18 0
0.92827 -1.61474e-18 0
0.970464 -2.64154e-18 0
1.05485 1.45996e-18 0
1.09705 -6.64193e-18 0
1.18143 -3.24582e-18 0
1.22363 3.0941e-18 0
1.30802 2.87436e-19 0
1.35021 -1.0055e-18 0
1.4346 1.02677e-20 0
1.47679 -2.01056e-18 0
1.56118 3.01453e-18 0
1.60338 -7.62399e-18 0
1.68776 -2.4596e-18 0
1.72996 1.54871e-19 0
1.81435 -5.58306e-19 0
1.85654 2.62689e-18 0
1.94093 2.6445e-18 0
1.98312 -1.62399e-18 0
2.06751 -1.02625e-18 0
2.1097 3.48507e-18 0
2.19409 2.68508e-18 0
2.23629 -3.96566e-18 0
2.32068 -2.95455e-18 0
2.36287 4.85059e-18 0
2.44726 6.3456e-18 0
2.48945 -7.88616e-18 0
2.57384 -2.67522e-18 0
2.61603 2.49678e-18 0
2.70042 -1.0556e-18 0
2.74262 3.24696e-18 0
2.827 1.72862e-18 0
2.8692 1.22884e-18 0
2.95359 -1.91699e-18 0
2.99578 7.20277e-18 0
3.08017 3.62001e-18 0
3.12236 -1.02271e-18 0
3.20675 -1.00228e-18 0
3.24895 1.78433e-18 0
3.33333 9.24673e-19 0
3.37553 -1.34448e-18 0
3.45992 -3.96518e-19 0
3.50211 -1.97136e-18 0
3.5865 3.97828e-19 0
3.62869 -4.68967e-18 0
3.71308 -3.00677e-18 0
3.75527 1.67816e-18 0
3.83966 -1.04749e-18 0
3.88186 5.85115e-18 0
3.96624 2.85755e-18 0
4.00844 5.18169e-19 0
4.09283 1.35455e-18 0
4.13502 -9.42303e-19 0
4.21941 1.83654e-21 0
4.2616 -4.77585e-19 0
4.34599 5.05477e-19 0
4.38819 -2.21466e-18 0
4.47257 -2.65599e-18 0
4.51477 3.4167e-18 0
4.59916 1.98105e-18 0
4.64135 -2.06909e-18 0
4.72574 1.43868e-19 0
4.76793 5.01034e-19 0
4.85232 3.06113e-19 0
4.89451 -6.13305e-19 0
4.9789 -4.06162e-19 0
5.0211 1.17811e-18 0
5.10549 1.39336e-18 0
5.14768 -1.23209e-18 0
5.23207 -2.2032e-18 0
5.27426 3.63251e-18 0
5.35865 1.65737e-18 0
5.40084 -1.37353e-18 0
5.48523 -1.20682e-19 0
5.52743 -1.86061e-19 0
5.61181 -6.27415e-19 0
5.65401 1.51842e-18 0
5.7384 1.47389e-18 0
5.78059 -4.16399e-18 0
5.86498 -1.37961e-18 0
5.90717 -1.8068e-18 0
5.99156 -8.66796e-19 0
6.03376 -2.14509e-18 0
6.11814 -8.4763e-19 0
6.16034 -1.75648e-18 0
6.24473 -1.35183e-18 0
6.28692 -1.37814e-19 0
6.37131 -9.16099e-19 0
6.4135 1.24072e-18 0
6.49789 1.84528e-19 0
6.54008 9.87056e-19 0
6.62447 5.58828e-19 0
6.66667 -8.51816e-19 0
6.75105 -2.45308e-18 0
6.79325 2.34876e-18 0
6.87764 1.7391e-18 0
6.91983 -3.08935e-18 0
7.00422 -2.25789e-18 0
7.04641 9.19999e-19 0
7.1308 -1.57541e-18 0
7.173 4.79985e-18 0
7.25738 2.22103e-18 0
7.29958 5.47918e-19 0
7.38397 8.09516e-19 0
7.42616 1.65833e-18 0
7.51055 1.79731e-18 0
7.55274 -1.14834e-18 0
7.63713 6.11108e-20 0
7.67932 -3.62023e-19 0
7.76371 -4.26171e-19 0
7.80591 5.75434e-19 0
7.8903 -2.4997e-20 0
7.93249 -3.98131e-19 0
8.01688 -2.6819e-18 0
8.05907 4.44197e-18 0
8.14346 1.3075e-18 0
8.18565 -3.48968e-19 0
8.27004 -2.72776e-18 0
8.31224 6.86934e-18 0
8.39662 5.17264e-18 0
8.43882 -7.94421e-19 0
8.52321 -1.78369e-18 0
8.5654 3.28901e-18 0
8.64979 3.62791e-18 0
8.69198 -8.15809e-18 0
8.77637 -2.16362e-18 0
8.81857 -7.27648e-18 0
8.90295 4.19905e-17 0
8.94515 1.14032e-16 0
9.02954 -5.24706e-16 0
9.07173 -3.8915e-16 0
9.15612 -1.77814e-15 0
9.19831 6.661e-15 0
9.2827 -4.86439e-14 0
9.32489 1.13752e-13 0
9.40928 -6.05808e-13 0
9.45148 1.84808e-12 0
9.53586 -6.01003e-12 0
9.57806 1.96433e-11 0
9.66245 -3.93225e-11 0
9.70464 1.58795e-10 0
9.78903 -1.06858e-10 0
9.83122 8.93558e-10 0
9.91561 7.33644e-09 0
9.95781 -8.50616e-09 0
10 0.00593316 0
10 0.0118665 0
10 0.0019776 0
10 0.00395538 0
10 0.00791094 0
10 0.00988872 0
10 0.0138443 0
10 0.0158221 0
9.87342 0.0178 0
9.74684 0.0178 0
9.62025 0.0178 0
9.49367 0.0178 0
9.36709 0.0178 0
9.24051 0.0178 0
9.11392 0.0178 0
8.98734 0.0178 0
8.86076 0.0178 0
8.73418 0.0178 0
8.60759 0.0178 0
8.48101 0.0178 0
8.35443 0.0178 0
8.22785 0.0178 0
8.10127 0.0178 0
7.97468 0.0178 0
7.8481 0.0178 0
7.72152 0.0178 0
7.59494 0.0178 0
7.46835 0.0178 0
7.34177 0.0178 0
7.21519 0.0178 0
7.08861 0.0178 0
6.96203 0.0178 0
6.83544 0.0178 0
6.70886 0.0178 0
6.58228 0.0178 0
6.4557 0.0178 0
6.32911 0.0178 0
6.20253 0.0178 0
6.07595 0.0178 0
5.94937 0.0178 0
5.82278 0.0178 0
5.6962 0.0178 0
5.56962 0.0178 0
5.44304 0.0178 0
5.31646 0.0178 0
5.18987 0.0178 0
5.06329 0.0178 0
4.93671 0.0178 0
4.81013 0.0178 0
4.68354 0.0178 0
4.55696 0.0178 0
4.43038 0.0178 0
4.3038 0.0178 0
4.17722 0.0178 0
4.05063 0.0178 0
3.92405 0.0178 0
3.79747 0.0178 0
3.67089 0.0178 0
3.5443 0.0178 0
3.41772 0.0178 0
3.29114 0.0178 0
3.16456 0.0178 0
3.03797 0.0178 0
2.91139 0.0178 0
2.78481 0.0178 0
2.65823 0.0178 0
2.53165 0.0178 0
2.40506 0.0178 0
2.27848 0.0178 0
2.1519 0.0178 0
2.02532 0.0178 0
1.89873 0.0178 0
1.77215 0.0178 0
1.64557 0.0178 0
1.51899 0.0178 0
1.39241 0.0178 0
1.26582 0.0178 0
1.13924 0.0178 0
1.01266 0.0178 0
0.886076 0.0178 0
0.759494 0.0178 0
0.632911 0.0178 0
0.506329 0.0178 0
0.379747 0.0178 0
0.253165 0.0178 0
0.126582 0.0178 0
9.95781 0.0178 0
9.91561 0.0178 0
9.83122 0.0178 0
9.78903 0.0178 0
9.70464 0.0178 0
9.66245 0.0178 0
9.57806 0.0178 0
9.53586 0.0178 0
9.45148 0.0178 0
9.40928 0.0178 0
9.32489 0.0178 0
9.2827 0.0178 0
9.19831 0.0178 0
9.15612 0.0178 0
9.07173 0.0178 0
9.02954 0.0178 0
8.94515 0.0178 0
8.90295 0.0178 0
8.81857 0.0178 0
8.77637 0.0178 0
8.69198 0.0178 0
8.64979 0.0178 0
8.5654 0.0178 0
8.52321 0.0178 0
8.43882 0.0178 0
8.39662 0.0178 0
8.31224 0.0178 0
8.27004 0.0178 0
8.18565 0.0178 0
8.14346 0.0178 0
8.05907 0.0178 0
8.01688 0.0178 0
7.93249 0.0178 0
7.8903 0.0178 0
7.80591 0.0178 0
7.76371 0.0178 0
7.67932 0.0178 0
7.63713 0.0178 0
7.55274 0.0178 0
7.51055 0.0178 0
7.42616 0.0178 0
7.38397 0.0178 0
7.29958 0.0178 0
7.25738 0.0178 0
7.173 0.0178 0
7.1308 0.0178 0
7.04641 0.0178 0
7.00422 0.0178 0
6.91983 0.0178 0
6.87764 0.0178 0
6.79325 0.0178 0
6.75105 0.0178 0
6.66667 0.0178 0
6.62447 0.0178 0
6.54008 0.0178 0
6.49789 0.0178 0
6.4135 0.0178 0
6.37131 0.0178 0
6.28692 0.0178 0
6.24473 0.0178 0
6.16034 0.0178 0
6.11814 0.0178 0
6.03376 0.0178 0
5.99156 0.0178 0
5.90717 0.0178 0
5.86498 0.0178 0
5.78059 0.0178 0
5.7384 0.0178 0
5.65401 0.0178 0
5.61181 0.0178 0
5.52743 0.0178 0
5.48523 0.0178 0
5.40084 0.0178 0
5.35865 0.0178 0
5.27426 0.0178 0
5.23207 0.0178 0
5.14768 0.0178 0
5.10549 0.0178 0
5.0211 0.0178 0
4.9789 0.0178 0
4.89451 0.0178 0
4.85232 0.0178 0
4.76793 0.0178 0
4.72574 0.0178 0
4.64135 0.0178 0
4.59916 0.0178 0
4.51477 0.0178 0
4.47257 0.0178 0
4.38819 0.0178 0
4.34599 0.0178 0
4.2616 0.0178 0
4.21941 0.0178 0
4.13502 0.0178 0
4.09283 0.0178 0
4.00844 0.0178 0
3.96624 0.0178 0
3.88186 0.0178 0
3.83966 0.0178 0
3.75527 0.0178 0
3.71308 0.0178 0
3.62869 0.0178 0
3.5865 0.0178 0
3.50211 0.0178 0
3.45992 0.0178 0
3.37553 0.0178 0
3.33333 0.0178 0
3.24895 0.0178 0
3.20675 0.0178 0
3.12236 0.0178 0
3.08017 0.0178 0
2.99578 0.0178 0
2.95359 0.0178 0
2.8692 0.0178 0
2.827 0.0178 0
2.74262 0.0178 0
2.70042 0.0178 0
2.61603 0.0178 0
2.57384 0.0178 0
2.48945 0.0178 0
2.44726 0.0178 0
2.36287 0.0178 0
2.32068 0.0178 0
2.23629 0.0178 0
2.19409 0.0178 0
2.1097 0.0178 0
2.06751 0.0178 0
1.98312 0.0178 0
1.94093 0.0178 0
1.85654 0.0178 0
1.81435 0.0178 0
1.72996 0.0178 0
1.68776 0.0178 0
1.60338 0.0178 0
1.56118 0.0178 0
1.47679 0.0178 0
1.4346 0.0178 0
1.35021 0.0178 0
1.30802 0.0178 0
1.22363 0.0178 0
1.18143 0.0178 0
1.09705 0.0178 0
1.05485 0.0178 0
0.970464 0.0178 0
0.92827 0.0178 0
0.843882 0.0178 0
0.801688 0.0178 0
0.7173 0.0178 0
0.675105 0.0178 0
0.590717 0.0178 0
0.548523 0.0178 0
0.464135 0.0178 0
0.421941 0.0178 0
0.337553 0.0178 0
0.295359 0.0178 0
0.21097 0.0178 0
0.168776 0.0178 0
0.0843882 0.0178 0
0.0421941 0.0178 0
0 0.0118667 0
0 0.00593333 0
0 0.0158222 0
0 0.0138444 0
0 0.00988889 0
0 0.00791111 0
0 0.00395556 0
0 0.00197778 0
0.126582 0.00593333 0
0.126582 0.0118667 0
0.253165 0.00593333 0
0.253165 0.0118667 0
0.379747 0.00593333 0
0.379747 0.0118667 0
0.506329 0.00593333 0
0.506329 0.0118667 0
0.632911 0.00593333 0
0.632911 0.0118667 0
0.759494 0.00593333 0
0.759494 0.0118667 0
0.886076 0.00593333 0
0.886076 0.0118667 0
[...]
CELL_DATA 474
POINT_DATA 2380
VECTORS Y Float64
0 0 0.0
10 -1.83792e-07 0.0
10 0.0177998 0.0
0 0.0178 0.0
0.126582 -5.12074e-18 0.0
0.253165 -3.58943e-18 0.0
0.379747 -2.46292e-18 0.0
0.506329 -3.01487e-18 0.0
0.632911 4.99191e-18 0.0
0.759494 -7.11418e-19 0.0
0.886076 5.85843e-18 0.0
1.01266 3.656e-18 0.0
1.13924 6.49674e-18 0.0
1.26582 -2.00519e-18 0.0
1.39241 1.06467e-18 0.0
1.51899 1.04235e-18 0.0
1.64557 7.74077e-18 0.0
1.77215 -4.56815e-19 0.0
1.89873 -4.60113e-18 0.0
2.02532 -7.50418e-19 0.0
2.1519 -4.09649e-18 0.0
2.27848 4.37526e-18 0.0
2.40506 -8.0133e-18 0.0
2.53165 6.72816e-18 0.0
2.65823 -1.81497e-18 0.0
2.78481 -5.79845e-18 0.0
2.91139 -2.72896e-18 0.0
3.03797 -1.01607e-17 0.0
3.16456 -6.0098e-19 0.0
3.29114 -3.12993e-18 0.0
3.41772 2.08658e-18 0.0
3.5443 1.77686e-18 0.0
3.67089 7.19226e-18 0.0
3.79747 -2.63911e-18 0.0
3.92405 -9.32305e-18 0.0
4.05063 -2.68715e-18 0.0
4.17722 -5.47681e-19 0.0
4.3038 9.59406e-19 0.0
4.43038 2.02665e-18 0.0
4.55696 -4.10623e-18 0.0
4.68354 8.63803e-19 0.0
4.81013 -5.11387e-19 0.0
4.93671 -1.51239e-19 0.0
5.06329 -2.1119e-18 0.0
5.18987 1.86455e-18 0.0
5.31646 -3.44383e-18 0.0
5.44304 1.29371e-18 0.0
5.56962 -1.00939e-18 0.0
5.6962 -1.09681e-18 0.0
5.82278 5.58837e-18 0.0
5.94937 2.19729e-18 0.0
6.07595 3.91526e-18 0.0
6.20253 2.52458e-18 0.0
6.32911 9.88461e-19 0.0
6.4557 -1.78328e-18 0.0
6.58228 -1.45269e-18 0.0
6.70886 1.77079e-18 0.0
6.83544 -2.95997e-18 0.0
6.96203 3.07683e-18 0.0
7.08861 -1.05819e-18 0.0
7.21519 -6.07728e-18 0.0
7.34177 -3.08115e-18 0.0
7.46835 -3.54468e-18 0.0
7.59494 1.02953e-18 0.0
7.72152 -7.12843e-19 0.0
7.8481 -4.92134e-19 0.0
7.97468 1.38654e-18 0.0
8.10127 -3.61422e-18 0.0
8.22785 -4.87705e-19 0.0
8.35443 -9.91897e-18 0.0
8.48101 -9.44287e-19 0.0
8.60759 -2.33384e-18 0.0
8.73418 1.02416e-17 0.0
8.86076 2.81091e-17 0.0
8.98734 -2.19502e-16 0.0
9.11392 2.38295e-15 0.0
9.24051 -1.36105e-14 0.0
9.36709 2.37905e-15 0.0
9.49367 -1.34525e-12 0.0
9.62025 -2.26849e-11 0.0
9.74684 -2.52522e-10 0.0
9.87342 -3.53069e-09 0.0
0.0421941 -7.29206e-19 0.0
0.0843882 5.3429e-18 0.0
0.168776 -6.30548e-19 0.0
0.21097 3.67256e-18 0.0
0.295359 3.64781e-19 0.0
0.337553 1.58331e-18 0.0
0.421941 5.78001e-19 0.0
0.464135 1.1121e-18 0.0
0.548523 1.95627e-18 0.0
0.590717 -3.43882e-18 0.0
0.675105 -1.61522e-18 0.0
0.7173 4.18722e-19 0.0
0.801688 1.39827e-18 0.0
0.843882 -3.90212e-18 0.0
0.92827 -1.61474e-18 0.0
0.970464 -2.64154e-18 0.0
1.05485 1.45996e-18 0.0
1.09705 -6.64193e-18 0.0
1.18143 -3.24582e-18 0.0
1.22363 3.0941e-18 0.0
1.30802 2.87436e-19 0.0
1.35021 -1.0055e-18 0.0
1.4346 1.02677e-20 0.0
1.47679 -2.01056e-18 0.0
1.56118 3.01453e-18 0.0
1.60338 -7.62399e-18 0.0
1.68776 -2.4596e-18 0.0
1.72996 1.54871e-19 0.0
1.81435 -5.58306e-19 0.0
1.85654 2.62689e-18 0.0
1.94093 2.6445e-18 0.0
1.98312 -1.62399e-18 0.0
2.06751 -1.02625e-18 0.0
2.1097 3.48507e-18 0.0
2.19409 2.68508e-18 0.0
2.23629 -3.96566e-18 0.0
2.32068 -2.95455e-18 0.0
2.36287 4.85059e-18 0.0
2.44726 6.3456e-18 0.0
2.48945 -7.88616e-18 0.0
2.57384 -2.67522e-18 0.0
2.61603 2.49678e-18 0.0
2.70042 -1.0556e-18 0.0
2.74262 3.24696e-18 0.0
2.827 1.72862e-18 0.0
2.8692 1.22884e-18 0.0
2.95359 -1.91699e-18 0.0
2.99578 7.20277e-18 0.0
3.08017 3.62001e-18 0.0
3.12236 -1.02271e-18 0.0
3.20675 -1.00228e-18 0.0
3.24895 1.78433e-18 0.0
3.33333 9.24673e-19 0.0
3.37553 -1.34448e-18 0.0
3.45992 -3.96518e-19 0.0
3.50211 -1.97136e-18 0.0
3.5865 3.97828e-19 0.0
3.62869 -4.68967e-18 0.0
3.71308 -3.00677e-18 0.0
3.75527 1.67816e-18 0.0
3.83966 -1.04749e-18 0.0
3.88186 5.85115e-18 0.0
3.96624 2.85755e-18 0.0
4.00844 5.18169e-19 0.0
4.09283 1.35455e-18 0.0
4.13502 -9.42303e-19 0.0
4.21941 1.83654e-21 0.0
4.2616 -4.77585e-19 0.0
4.34599 5.05477e-19 0.0
4.38819 -2.21466e-18 0.0
4.47257 -2.65599e-18 0.0
4.51477 3.4167e-18 0.0
4.59916 1.98105e-18 0.0
4.64135 -2.06909e-18 0.0
4.72574 1.43868e-19 0.0
4.76793 5.01034e-19 0.0
4.85232 3.06113e-19 0.0
4.89451 -6.13305e-19 0.0
4.9789 -4.06162e-19 0.0
5.0211 1.17811e-18 0.0
5.10549 1.39336e-18 0.0
5.14768 -1.23209e-18 0.0
5.23207 -2.2032e-18 0.0
5.27426 3.63251e-18 0.0
5.35865 1.65737e-18 0.0
5.40084 -1.37353e-18 0.0
5.48523 -1.20682e-19 0.0
5.52743 -1.86061e-19 0.0
5.61181 -6.27415e-19 0.0
5.65401 1.51842e-18 0.0
5.7384 1.47389e-18 0.0
5.78059 -4.16399e-18 0.0
5.86498 -1.37961e-18 0.0
5.90717 -1.8068e-18 0.0
5.99156 -8.66796e-19 0.0
6.03376 -2.14509e-18 0.0
6.11814 -8.4763e-19 0.0
6.16034 -1.75648e-18 0.0
6.24473 -1.35183e-18 0.0
6.28692 -1.37814e-19 0.0
6.37131 -9.16099e-19 0.0
6.4135 1.24072e-18 0.0
6.49789 1.84528e-19 0.0
6.54008 9.87056e-19 0.0
6.62447 5.58828e-19 0.0
6.66667 -8.51816e-19 0.0
6.75105 -2.45308e-18 0.0
6.79325 2.34876e-18 0.0
6.87764 1.7391e-18 0.0
6.91983 -3.08935e-18 0.0
7.00422 -2.25789e-18 0.0
7.04641 9.19999e-19 0.0
7.1308 -1.57541e-18 0.0
7.173 4.79985e-18 0.0
7.25738 2.22103e-18 0.0
7.29958 5.47918e-19 0.0
7.38397 8.09516e-19 0.0
7.42616 1.65833e-18 0.0
7.51055 1.79731e-18 0.0
7.55274 -1.14834e-18 0.0
7.63713 6.11108e-20 0.0
7.67932 -3.62023e-19 0.0
7.76371 -4.26171e-19 0.0
7.80591 5.75434e-19 0.0
7.8903 -2.4997e-20 0.0
7.93249 -3.98131e-19 0.0
8.01688 -2.6819e-18 0.0
8.05907 4.44197e-18 0.0
8.14346 1.3075e-18 0.0
8.18565 -3.48968e-19 0.0
8.27004 -2.72776e-18 0.0
8.31224 6.86934e-18 0.0
8.39662 5.17264e-18 0.0
8.43882 -7.94421e-19 0.0
8.52321 -1.78369e-18 0.0
8.5654 3.28901e-18 0.0
8.64979 3.62791e-18 0.0
8.69198 -8.15809e-18 0.0
8.77637 -2.16362e-18 0.0
8.81857 -7.27648e-18 0.0
8.90295 4.19905e-17 0.0
8.94515 1.14032e-16 0.0
9.02954 -5.24706e-16 0.0
9.07173 -3.8915e-16 0.0
9.15612 -1.77814e-15 0.0
9.19831 6.661e-15 0.0
9.2827 -4.86439e-14 0.0
9.32489 1.13752e-13 0.0
9.40928 -6.05808e-13 0.0
9.45148 1.84808e-12 0.0
9.53586 -6.01003e-12 0.0
9.57806 1.96433e-11 0.0
9.66245 -3.93225e-11 0.0
9.70464 1.58795e-10 0.0
9.78903 -1.06858e-10 0.0
9.83122 8.93558e-10 0.0
9.91561 7.33644e-09 0.0
9.95781 -8.50616e-09 0.0
10 0.00593316 0.0
10 0.0118665 0.0
10 0.0019776 0.0
10 0.00395538 0.0
10 0.00791094 0.0
10 0.00988872 0.0
10 0.0138443 0.0
10 0.0158221 0.0
9.87342 0.0178 0.0
9.74684 0.0178 0.0
9.62025 0.0178 0.0
9.49367 0.0178 0.0
9.36709 0.0178 0.0
9.24051 0.0178 0.0
9.11392 0.0178 0.0
8.98734 0.0178 0.0
8.86076 0.0178 0.0
8.73418 0.0178 0.0
8.60759 0.0178 0.0
8.48101 0.0178 0.0
8.35443 0.0178 0.0
8.22785 0.0178 0.0
8.10127 0.0178 0.0
7.97468 0.0178 0.0
7.8481 0.0178 0.0
7.72152 0.0178 0.0
7.59494 0.0178 0.0
7.46835 0.0178 0.0
7.34177 0.0178 0.0
7.21519 0.0178 0.0
7.08861 0.0178 0.0
6.96203 0.0178 0.0
6.83544 0.0178 0.0
6.70886 0.0178 0.0
6.58228 0.0178 0.0
6.4557 0.0178 0.0
6.32911 0.0178 0.0
6.20253 0.0178 0.0
6.07595 0.0178 0.0
5.94937 0.0178 0.0
5.82278 0.0178 0.0
5.6962 0.0178 0.0
5.56962 0.0178 0.0
5.44304 0.0178 0.0
5.31646 0.0178 0.0
5.18987 0.0178 0.0
5.06329 0.0178 0.0
4.93671 0.0178 0.0
4.81013 0.0178 0.0
4.68354 0.0178 0.0
4.55696 0.0178 0.0
4.43038 0.0178 0.0
4.3038 0.0178 0.0
4.17722 0.0178 0.0
4.05063 0.0178 0.0
3.92405 0.0178 0.0
3.79747 0.0178 0.0
3.67089 0.0178 0.0
3.5443 0.0178 0.0
3.41772 0.0178 0.0
3.29114 0.0178 0.0
3.16456 0.0178 0.0
3.03797 0.0178 0.0
2.91139 0.0178 0.0
2.78481 0.0178 0.0
2.65823 0.0178 0.0
2.53165 0.0178 0.0
2.40506 0.0178 0.0
2.27848 0.0178 0.0
2.1519 0.0178 0.0
2.02532 0.0178 0.0
1.89873 0.0178 0.0
1.77215 0.0178 0.0
1.64557 0.0178 0.0
1.51899 0.0178 0.0
1.39241 0.0178 0.0
1.26582 0.0178 0.0
1.13924 0.0178 0.0
1.01266 0.0178 0.0
0.886076 0.0178 0.0
0.759494 0.0178 0.0
0.632911 0.0178 0.0
0.506329 0.0178 0.0
0.379747 0.0178 0.0
0.253165 0.0178 0.0
0.126582 0.0178 0.0
9.95781 0.0178 0.0
9.91561 0.0178 0.0
9.83122 0.0178 0.0
9.78903 0.0178 0.0
9.70464 0.0178 0.0
9.66245 0.0178 0.0
9.57806 0.0178 0.0
9.53586 0.0178 0.0
9.45148 0.0178 0.0
9.40928 0.0178 0.0
9.32489 0.0178 0.0
9.2827 0.0178 0.0
9.19831 0.0178 0.0
9.15612 0.0178 0.0
9.07173 0.0178 0.0
9.02954 0.0178 0.0
8.94515 0.0178 0.0
8.90295 0.0178 0.0
8.81857 0.0178 0.0
8.77637 0.0178 0.0
8.69198 0.0178 0.0
8.64979 0.0178 0.0
8.5654 0.0178 0.0
8.52321 0.0178 0.0
8.43882 0.0178 0.0
8.39662 0.0178 0.0
8.31224 0.0178 0.0
8.27004 0.0178 0.0
8.18565 0.0178 0.0
8.14346 0.0178 0.0
8.05907 0.0178 0.0
8.01688 0.0178 0.0
7.93249 0.0178 0.0
7.8903 0.0178 0.0
7.80591 0.0178 0.0
7.76371 0.0178 0.0
7.67932 0.0178 0.0
7.63713 0.0178 0.0
7.55274 0.0178 0.0
7.51055 0.0178 0.0
7.42616 0.0178 0.0
7.38397 0.0178 0.0
7.29958 0.0178 0.0
7.25738 0.0178 0.0
7.173 0.0178 0.0
7.1308 0.0178 0.0
7.04641 0.0178 0.0
7.00422 0.0178 0.0
6.91983 0.0178 0.0
6.87764 0.0178 0.0
6.79325 0.0178 0.0
6.75105 0.0178 0.0
6.66667 0.0178 0.0
6.62447 0.0178 0.0
6.54008 0.0178 0.0
6.49789 0.0178 0.0
6.4135 0.0178 0.0
6.37131 0.0178 0.0
6.28692 0.0178 0.0
6.24473 0.0178 0.0
6.16034 0.0178 0.0
6.11814 0.0178 0.0
6.03376 0.0178 0.0
5.99156 0.0178 0.0
5.90717 0.0178 0.0
5.86498 0.0178 0.0
5.78059 0.0178 0.0
5.7384 0.0178 0.0
5.65401 0.0178 0.0
5.61181 0.0178 0.0
5.52743 0.0178 0.0
5.48523 0.0178 0.0
5.40084 0.0178 0.0
5.35865 0.0178 0.0
5.27426 0.0178 0.0
5.23207 0.0178 0.0
5.14768 0.0178 0.0
5.10549 0.0178 0.0
5.0211 0.0178 0.0
4.9789 0.0178 0.0
4.89451 0.0178 0.0
4.85232 0.0178 0.0
4.76793 0.0178 0.0
4.72574 0.0178 0.0
4.64135 0.0178 0.0
4.59916 0.0178 0.0
4.51477 0.0178 0.0
4.47257 0.0178 0.0
4.38819 0.0178 0.0
4.34599 0.0178 0.0
4.2616 0.0178 0.0
4.21941 0.0178 0.0
4.13502 0.0178 0.0
4.09283 0.0178 0.0
4.00844 0.0178 0.0
3.96624 0.0178 0.0
3.88186 0.0178 0.0
3.83966 0.0178 0.0
3.75527 0.0178 0.0
3.71308 0.0178 0.0
3.62869 0.0178 0.0
3.5865 0.0178 0.0
3.50211 0.0178 0.0
3.45992 0.0178 0.0
3.37553 0.0178 0.0
3.33333 0.0178 0.0
3.24895 0.0178 0.0
3.20675 0.0178 0.0
3.12236 0.0178 0.0
3.08017 0.0178 0.0
2.99578 0.0178 0.0
2.95359 0.0178 0.0
2.8692 0.0178 0.0
2.827 0.0178 0.0
2.74262 0.0178 0.0
2.70042 0.0178 0.0
2.61603 0.0178 0.0
2.57384 0.0178 0.0
2.48945 0.0178 0.0
2.44726 0.0178 0.0
2.36287 0.0178 0.0
2.32068 0.0178 0.0
2.23629 0.0178 0.0
2.19409 0.0178 0.0
2.1097 0.0178 0.0
2.06751 0.0178 0.0
1.98312 0.0178 0.0
1.94093 0.0178 0.0
1.85654 0.0178 0.0
1.81435 0.0178 0.0
1.72996 0.0178 0.0
1.68776 0.0178 0.0
1.60338 0.0178 0.0
1.56118 0.0178 0.0
1.47679 0.0178 0.0
1.4346 0.0178 0.0
1.35021 0.0178 0.0
1.30802 0.0178 0.0
1.22363 0.0178 0.0
1.18143 0.0178 0.0
1.09705 0.0178 0.0
1.05485 0.0178 0.0
0.970464 0.0178 0.0
0.92827 0.0178 0.0
0.843882 0.0178 0.0
0.801688 0.0178 0.0
0.7173 0.0178 0.0
0.675105 0.0178 0.0
0.590717 0.0178 0.0
0.548523 0.0178 0.0
0.464135 0.0178 0.0
0.421941 0.0178 0.0
0.337553 0.0178 0.0
0.295359 0.0178 0.0
0.21097 0.0178 0.0
0.168776 0.0178 0.0
0.0843882 0.0178 0.0
0.0421941 0.0178 0.0
0 0.0118667 0.0
0 0.00593333 0.0
0 0.0158222 0.0
0 0.0138444 0.0
0 0.00988889 0.0
0 0.00791111 0.0
0 0.00395556 0.0
0 0.00197778 0.0
0.126582 0.00593333 0.0
0.126582 0.0118667 0.0
0.253165 0.00593333 0.0
0.253165 0.0118667 0.0
0.379747 0.00593333 0.0
0.379747 0.0118667 0.0
0.506329 0.00593333 0.0
0.506329 0.0118667 0.0
0.632911 0.00593333 0.0
0.632911 0.0118667 0.0
0.759494 0.00593333 0.0
0.759494 0.0118667 0.0
0.886076 0.00593333 0.0
0.886076 0.0118667 0.0
1.01266 0.00593333 0.0
1.01266 0.0118667 0.0
1.13924 0.00593333 0.0
1.13924 0.0118667 0.0
1.26582 0.00593333 0.0
1.26582 0.0118667 0.0
1.39241 0.00593333 0.0
1.39241 0.0118667 0.0
1.51899 0.00593333 0.0
1.51899 0.0118667 0.0
1.64557 0.00593333 0.0
1.64557 0.0118667 0.0
1.77215 0.00593333 0.0
1.77215 0.0118667 0.0
1.89873 0.00593333 0.0
1.89873 0.0118667 0.0
2.02532 0.00593333 0.0
2.02532 0.0118667 0.0
2.1519 0.00593333 0.0
2.1519 0.0118667 0.0
2.27848 0.00593333 0.0
2.27848 0.0118667 0.0
2.40506 0.00593333 0.0
2.40506 0.0118667 0.0
2.53165 0.00593333 0.0
2.53165 0.0118667 0.0
2.65823 0.00593333 0.0
2.65823 0.0118667 0.0
2.78481 0.00593333 0.0
2.78481 0.0118667 0.0
2.91139 0.00593333 0.0
2.91139 0.0118667 0.0
3.03797 0.00593333 0.0
3.03797 0.0118667 0.0
3.16456 0.00593333 0.0
3.16456 0.0118667 0.0
3.29114 0.00593333 0.0
3.29114 0.0118667 0.0
3.41772 0.00593333 0.0
3.41772 0.0118667 0.0
3.5443 0.00593333 0.0
3.5443 0.0118667 0.0
3.67089 0.00593333 0.0
3.67089 0.0118667 0.0
3.79747 0.00593333 0.0
3.79747 0.0118667 0.0
3.92405 0.00593333 0.0
3.92405 0.0118667 0.0
4.05063 0.00593333 0.0
4.05063 0.0118667 0.0
4.17722 0.00593333 0.0
4.17722 0.0118667 0.0
4.3038 0.00593333 0.0
4.3038 0.0118667 0.0
4.43038 0.00593333 0.0
4.43038 0.0118667 0.0
4.55696 0.00593333 0.0
4.55696 0.0118667 0.0
4.68354 0.00593333 0.0
4.68354 0.0118667 0.0
4.81013 0.00593333 0.0
4.81013 0.0118667 0.0
4.93671 0.00593333 0.0
4.93671 0.0118667 0.0
5.06329 0.00593333 0.0
5.06329 0.0118667 0.0
5.18987 0.00593333 0.0
5.18987 0.0118667 0.0
5.31646 0.00593333 0.0
5.31646 0.0118667 0.0
5.44304 0.00593333 0.0
5.44304 0.0118667 0.0
5.56962 0.00593333 0.0
5.56962 0.0118667 0.0
5.6962 0.00593333 0.0
5.6962 0.0118667 0.0
5.82278 0.00593333 0.0
5.82278 0.0118667 0.0
5.94937 0.00593333 0.0
5.94937 0.0118667 0.0
6.07595 0.00593333 0.0
6.07595 0.0118667 0.0
6.20253 0.00593333 0.0
6.20253 0.0118667 0.0
6.32911 0.00593333 0.0
6.32911 0.0118667 0.0
6.4557 0.00593333 0.0
6.4557 0.0118667 0.0
6.58228 0.00593333 0.0
6.58228 0.0118667 0.0
6.70886 0.00593333 0.0
6.70886 0.0118667 0.0
6.83544 0.00593333 0.0
6.83544 0.0118667 0.0
6.96203 0.00593333 0.0
6.96203 0.0118667 0.0
7.08861 0.00593333 0.0
7.08861 0.0118667 0.0
7.21519 0.00593333 0.0
7.21519 0.0118667 0.0
7.34177 0.00593333 0.0
7.34177 0.0118667 0.0
7.46835 0.00593333 0.0
7.46835 0.0118667 0.0
7.59494 0.00593333 0.0
7.59494 0.0118667 0.0
7.72152 0.00593333 0.0
7.72152 0.0118667 0.0
7.8481 0.00593333 0.0
7.8481 0.0118667 0.0
7.97468 0.00593333 0.0
7.97468 0.0118667 0.0
8.10127 0.00593333 0.0
8.10127 0.0118667 0.0
8.22785 0.00593333 0.0
8.22785 0.0118667 0.0
8.35443 0.00593333 0.0
8.35443 0.0118667 0.0
8.48101 0.00593333 0.0
8.48101 0.0118667 0.0
8.60759 0.00593333 0.0
8.60759 0.0118667 0.0
8.73418 0.00593333 0.0
8.73418 0.0118667 0.0
8.86076 0.00593333 0.0
8.86076 0.0118667 0.0
8.98734 0.00593333 0.0
8.98734 0.0118667 0.0
9.11392 0.00593333 0.0
9.11392 0.0118667 0.0
9.24051 0.00593333 0.0
9.24051 0.0118667 0.0
9.36709 0.00593333 0.0
9.36709 0.0118667 0.0
9.49367 0.00593333 0.0
9.49367 0.0118667 0.0
9.62025 0.00593333 0.0
9.62025 0.0118667 0.0
9.74684 0.00593333 0.0
9.74684 0.0118667 0.0
9.87342 0.00593333 0.0
9.87342 0.0118667 0.0
0.0843882 0.00197778 0.0
0.0421941 0.00395556 0.0
0.0421941 0.00197778 0.0
0.126582 0.00197778 0.0
0.126582 0.00395556 0.0
0.0843882 0.00593333 0.0
0.0421941 0.00593333 0.0
0.0843882 0.00395556 0.0
0.0843882 0.00791111 0.0
0.0421941 0.00988889 0.0
0.0421941 0.00791111 0.0
0.126582 0.00791111 0.0
0.126582 0.00988889 0.0
0.0843882 0.0118667 0.0
0.0421941 0.0118667 0.0
0.0843882 0.00988889 0.0
0.0843882 0.0138444 0.0
0.0421941 0.0158222 0.0
0.0421941 0.0138444 0.0
0.126582 0.0138444 0.0
0.126582 0.0158222 0.0
0.0843882 0.0158222 0.0
0.21097 0.00197778 0.0
0.168776 0.00395556 0.0
0.168776 0.00197778 0.0
0.253165 0.00197778 0.0
0.253165 0.00395556 0.0
0.21097 0.00593333 0.0
0.168776 0.00593333 0.0
0.21097 0.00395556 0.0
0.21097 0.00791111 0.0
0.168776 0.00988889 0.0
0.168776 0.00791111 0.0
0.253165 0.00791111 0.0
0.253165 0.00988889 0.0
0.21097 0.0118667 0.0
0.168776 0.0118667 0.0
0.21097 0.00988889 0.0
0.21097 0.0138444 0.0
0.168776 0.0158222 0.0
0.168776 0.0138444 0.0
0.253165 0.0138444 0.0
0.253165 0.0158222 0.0
0.21097 0.0158222 0.0
0.337553 0.00197778 0.0
0.295359 0.00395556 0.0
0.295359 0.00197778 0.0
0.379747 0.00197778 0.0
0.379747 0.00395556 0.0
0.337553 0.00593333 0.0
0.295359 0.00593333 0.0
0.337553 0.00395556 0.0
0.337553 0.00791111 0.0
0.295359 0.00988889 0.0
0.295359 0.00791111 0.0
0.379747 0.00791111 0.0
0.379747 0.00988889 0.0
0.337553 0.0118667 0.0
0.295359 0.0118667 0.0
0.337553 0.00988889 0.0
0.337553 0.0138444 0.0
0.295359 0.0158222 0.0
0.295359 0.0138444 0.0
0.379747 0.0138444 0.0
0.379747 0.0158222 0.0
0.337553 0.0158222 0.0
0.464135 0.00197778 0.0
0.421941 0.00395556 0.0
0.421941 0.00197778 0.0
0.506329 0.00197778 0.0
0.506329 0.00395556 0.0
0.464135 0.00593333 0.0
0.421941 0.00593333 0.0
0.464135 0.00395556 0.0
0.464135 0.00791111 0.0
0.421941 0.00988889 0.0
0.421941 0.00791111 0.0
0.506329 0.00791111 0.0
0.506329 0.00988889 0.0
0.464135 0.0118667 0.0
0.421941 0.0118667 0.0
0.464135 0.00988889 0.0
0.464135 0.0138444 0.0
0.421941 0.0158222 0.0
0.421941 0.0138444 0.0
0.506329 0.0138444 0.0
0.506329 0.0158222 0.0
0.464135 0.0158222 0.0
0.590717 0.00197778 0.0
0.548523 0.00395556 0.0
0.548523 0.00197778 0.0
0.632911 0.00197778 0.0
0.632911 0.00395556 0.0
0.590717 0.00593333 0.0
0.548523 0.00593333 0.0
0.590717 0.00395556 0.0
0.590717 0.00791111 0.0
0.548523 0.00988889 0.0
0.548523 0.00791111 0.0
0.632911 0.00791111 0.0
0.632911 0.00988889 0.0
0.590717 0.0118667 0.0
0.548523 0.0118667 0.0
0.590717 0.00988889 0.0
0.590717 0.0138444 0.0
0.548523 0.0158222 0.0
0.548523 0.0138444 0.0
0.632911 0.0138444 0.0
0.632911 0.0158222 0.0
0.590717 0.0158222 0.0
0.7173 0.00197778 0.0
0.675105 0.00395556 0.0
0.675105 0.00197778 0.0
0.759494 0.00197778 0.0
0.759494 0.00395556 0.0
0.7173 0.00593333 0.0
0.675105 0.00593333 0.0
0.7173 0.00395556 0.0
0.7173 0.00791111 0.0
0.675105 0.00988889 0.0
0.675105 0.00791111 0.0
0.759494 0.00791111 0.0
0.759494 0.00988889 0.0
0.7173 0.0118667 0.0
0.675105 0.0118667 0.0
0.7173 0.00988889 0.0
0.7173 0.0138444 0.0
0.675105 0.0158222 0.0
0.675105 0.0138444 0.0
0.759494 0.0138444 0.0
0.759494 0.0158222 0.0
0.7173 0.0158222 0.0
0.843882 0.00197778 0.0
0.801688 0.00395556 0.0
0.801688 0.00197778 0.0
0.886076 0.00197778 0.0
0.886076 0.00395556 0.0
0.843882 0.00593333 0.0
0.801688 0.00593333 0.0
0.843882 0.00395556 0.0
0.843882 0.00791111 0.0
0.801688 0.00988889 0.0
0.801688 0.00791111 0.0
0.886076 0.00791111 0.0
0.886076 0.00988889 0.0
0.843882 0.0118667 0.0
0.801688 0.0118667 0.0
0.843882 0.00988889 0.0
0.843882 0.0138444 0.0
0.801688 0.0158222 0.0
0.801688 0.0138444 0.0
0.886076 0.0138444 0.0
0.886076 0.0158222 0.0
0.843882 0.0158222 0.0
0.970464 0.00197778 0.0
0.92827 0.00395556 0.0
0.92827 0.00197778 0.0
1.01266 0.00197778 0.0
1.01266 0.00395556 0.0
0.970464 0.00593333 0.0
0.92827 0.00593333 0.0
0.970464 0.00395556 0.0
0.970464 0.00791111 0.0
0.92827 0.00988889 0.0
0.92827 0.00791111 0.0
1.01266 0.00791111 0.0
1.01266 0.00988889 0.0
0.970464 0.0118667 0.0
0.92827 0.0118667 0.0
0.970464 0.00988889 0.0
0.970464 0.0138444 0.0
0.92827 0.0158222 0.0
0.92827 0.0138444 0.0
1.01266 0.0138444 0.0
1.01266 0.0158222 0.0
0.970464 0.0158222 0.0
1.09705 0.00197778 0.0
1.05485 0.00395556 0.0
1.05485 0.00197778 0.0
1.13924 0.00197778 0.0
1.13924 0.00395556 0.0
1.09705 0.00593333 0.0
1.05485 0.00593333 0.0
1.09705 0.00395556 0.0
1.09705 0.00791111 0.0
1.05485 0.00988889 0.0
1.05485 0.00791111 0.0
1.13924 0.00791111 0.0
1.13924 0.00988889 0.0
1.09705 0.0118667 0.0
1.05485 0.0118667 0.0
1.09705 0.00988889 0.0
1.09705 0.0138444 0.0
1.05485 0.0158222 0.0
1.05485 0.0138444 0.0
1.13924 0.0138444 0.0
1.13924 0.0158222 0.0
1.09705 0.0158222 0.0
1.22363 0.00197778 0.0
1.18143 0.00395556 0.0
1.18143 0.00197778 0.0
1.26582 0.00197778 0.0
1.26582 0.00395556 0.0
1.22363 0.00593333 0.0
1.18143 0.00593333 0.0
1.22363 0.00395556 0.0
1.22363 0.00791111 0.0
1.18143 0.00988889 0.0
1.18143 0.00791111 0.0
1.26582 0.00791111 0.0
1.26582 0.00988889 0.0
1.22363 0.0118667 0.0
1.18143 0.0118667 0.0
1.22363 0.00988889 0.0
1.22363 0.0138444 0.0
1.18143 0.0158222 0.0
1.18143 0.0138444 0.0
1.26582 0.0138444 0.0
1.26582 0.0158222 0.0
1.22363 0.0158222 0.0
1.35021 0.00197778 0.0
1.30802 0.00395556 0.0
1.30802 0.00197778 0.0
1.39241 0.00197778 0.0
1.39241 0.00395556 0.0
1.35021 0.00593333 0.0
1.30802 0.00593333 0.0
1.35021 0.00395556 0.0
1.35021 0.00791111 0.0
1.30802 0.00988889 0.0
1.30802 0.00791111 0.0
1.39241 0.00791111 0.0
1.39241 0.00988889 0.0
1.35021 0.0118667 0.0
1.30802 0.0118667 0.0
1.35021 0.00988889 0.0
1.35021 0.0138444 0.0
1.30802 0.0158222 0.0
1.30802 0.0138444 0.0
1.39241 0.0138444 0.0
1.39241 0.0158222 0.0
1.35021 0.0158222 0.0
1.47679 0.00197778 0.0
1.4346 0.00395556 0.0
1.4346 0.00197778 0.0
1.51899 0.00197778 0.0
1.51899 0.00395556 0.0
1.47679 0.00593333 0.0
1.4346 0.00593333 0.0
1.47679 0.00395556 0.0
1.47679 0.00791111 0.0
1.4346 0.00988889 0.0