<?xml version="1.0"?>
<VTKFile type="UnstructuredGrid">
  <UnstructuredGrid>
  <Piece NumberOfPoints="16"  NumberOfCells="2">
    <Points>
      <DataArray type="Float64" NumberOfComponents="3" format="ascii">
0 0 0
1.54633 0.0121853 0
1.54576 0.984465 0
0 1 0
0.508078 -0.00205413 0
1.02224 -0.000102579 0
1.51255 0.339615 0
1.5125 0.661445 0
1.02223 1.00086 0
0.508391 1.00288 0
0 0.666667 0
0 0.333333 0
1.0111 0.332873 0
0.505914 0.667465 0
0.506046 0.332114 0
1.01083 0.66639 0
      </DataArray>
    </Points>
    <Cells>
      <DataArray type="Int32" Name="connectivity" format="ascii">
 0 1 3 4 5 12 13 10 11 14
 3 1 2 13 12 6 7 8 9 15
      </DataArray>
      <DataArray type="Int32" Name="offsets" format="ascii">
10
20
      </DataArray>
      <DataArray type="UInt8" Name="types" format="ascii">
69
69
      </DataArray>
    </Cells>
    <PointData>
      <DataArray type="Float64" NumberOfComponents="2" Name="Displacement" format="ascii">
0 0
0.546335 0.0121853
0.54576 -0.0155355
0 0
0.174745 -0.00205413
0.35557 -0.000102579
0.512554 0.00628215
0.512499 -0.00522198
0.355567 0.000863885
0.175057 0.00287957
0 0
0 0
0.34443 -0.00045989
0.172581 0.000798831
0.172713 -0.00121972
0.344168 -0.000276558
      </DataArray>
      <DataArray type="Float64" NumberOfComponents="9" Name="Tensor S" format="ascii">
0.653657 -0.00292012  0.00
-0.00292012 0  0.00
0.00 0.00  0.00

0.719683 -0.0617976  0.00
-0.0617976 -0.00136857  0.00
0.00 0.00  0.00

0.766213 0.0794434  0.00
0.0794434 -0.0109615  0.00
0.00 0.00  0.00

0.678994 -0.0038426  0.00
-0.0038426 -0.00721798  0.00
0.00 0.00  0.00

0.672638 -0.00851195  0.00
-0.00851195 0.000767291  0.00
0.00 0.00  0.00

0.709886 -0.0213721  0.00
-0.0213721 -0.00384839  0.00
0.00 0.00  0.00

0.601808 -0.0274681  0.00
-0.0274681 -0.0277939  0.00
0.00 0.00  0.00

0.631978 0.0230983  0.00
0.0230983 -0.0342191  0.00
0.00 0.00  0.00

0.707624 0.0282688  0.00
0.0282688 0.0130311  0.00
0.00 0.00  0.00

0.672358 -0.00304029  0.00
-0.00304029 0.0142506  0.00
0.00 0.00  0.00

0.676171 0.00439851  0.00
0.00439851 0  0.00
0.00 0.00  0.00

0.660512 -0.000148915  0.00
-0.000148915 0  0.00
0.00 0.00  0.00

0.658391 -0.0109733  0.00
-0.0109733 0.00448288  0.00
0.00 0.00  0.00

0.645843 0.0076001  0.00
0.0076001 0.00494204  0.00
0.00 0.00  0.00

0.647188 -0.00439426  0.00
-0.00439426 0.00429387  0.00
0.00 0.00  0.00

0.636683 0.0106085  0.00
0.0106085 -0.00126613  0.00
0.00 0.00  0.00

      </DataArray>
      <DataArray type="Float64" NumberOfComponents="9" Name="Tensor E" format="ascii">
0.653657 -0.00292012  0.00
-0.00292012 0  0.00
0.00 0.00  0.00

0.719683 -0.0617976  0.00
-0.0617976 -0.00136857  0.00
0.00 0.00  0.00

0.766213 0.0794434  0.00
0.0794434 -0.0109615  0.00
0.00 0.00  0.00

0.678994 -0.0038426  0.00
-0.0038426 -0.00721798  0.00
0.00 0.00  0.00

0.672638 -0.00851195  0.00
-0.00851195 0.000767291  0.00
0.00 0.00  0.00

0.709886 -0.0213721  0.00
-0.0213721 -0.00384839  0.00
0.00 0.00  0.00

0.601808 -0.0274681  0.00
-0.0274681 -0.0277939  0.00
0.00 0.00  0.00

0.631978 0.0230983  0.00
0.0230983 -0.0342191  0.00
0.00 0.00  0.00

0.707624 0.0282688  0.00
0.0282688 0.0130311  0.00
0.00 0.00  0.00

0.672358 -0.00304029  0.00
-0.00304029 0.0142506  0.00
0.00 0.00  0.00

0.676171 0.00439851  0.00
0.00439851 0  0.00
0.00 0.00  0.00

0.660512 -0.000148915  0.00
-0.000148915 0  0.00
0.00 0.00  0.00

0.658391 -0.0109733  0.00
-0.0109733 0.00448288  0.00
0.00 0.00  0.00

0.645843 0.0076001  0.00
0.0076001 0.00494204  0.00
0.00 0.00  0.00

0.647188 -0.00439426  0.00
-0.00439426 0.00429387  0.00
0.00 0.00  0.00

0.636683 0.0106085  0.00
0.0106085 -0.00126613  0.00
0.00 0.00  0.00

      </DataArray>
      <DataArray type="Float64" NumberOfComponents="9" Name="Sigma" format="ascii">
0.992888 -0.00673763  0.00
-0.00673763 3.71327e-05  0.00
0.00 0.00  0.00

1.14596 -0.0142199  0.00
-0.0142199 -0.00407806  0.00
0.00 0.00  0.00

1.26002 0.0147819  0.00
0.0147819 -0.0115011  0.00
0.00 0.00  0.00

1.05091 0.00597504  0.00
0.00597504 -0.00449027  0.00
0.00 0.00  0.00

1.02952 -0.0107478  0.00
-0.0107478 0.000543138  0.00
0.00 0.00  0.00

1.11049 -0.00828605  0.00
-0.00828605 -0.00280959  0.00
0.00 0.00  0.00

0.922573 -0.0136536  0.00
-0.0136536 -0.0187461  0.00
0.00 0.00  0.00

0.987653 0.00217939  0.00
0.00217939 -0.0224315  0.00
0.00 0.00  0.00

1.08902 0.0126654  0.00
0.0126654 0.00788087  0.00
0.00 0.00  0.00

1.01522 0.000890121  0.00
0.000890121 0.00942955  0.00
0.00 0.00  0.00

1.03705 0.0103468  0.00
0.0103468 8.45759e-05  0.00
0.00 0.00  0.00

1.00628 -0.000345635  0.00
-0.000345635 9.66803e-08  0.00
0.00 0.00  0.00

0.99827 -0.00230947  0.00
-0.00230947 0.00285104  0.00
0.00 0.00  0.00

0.973517 0.00507795  0.00
0.00507795 0.0032465  0.00
0.00 0.00  0.00

0.976165 -0.00688795  0.00
-0.00688795 0.00287562  0.00
0.00 0.00  0.00

0.961635 0.00786011  0.00
0.00786011 -0.000891065  0.00
0.00 0.00  0.00

      </DataArray>
      <DataArray type="Float64" NumberOfComponents="1" Name="ue" format="ascii">
0.213642
0.264336
0.299912
0.231036
0.226294
0.252433
0.182227
0.200817
0.25125
0.226144
0.228623
0.218138
0.216913
0.208786
0.209455
0.202796
      </DataArray> 
    </PointData>
    <CellData>
    </CellData>
  </Piece>
  </UnstructuredGrid>
</VTKFile>
