# vtk DataFile Version 2.0
FEM, Created by Wutzow
ASCII
DATASET UNSTRUCTURED_GRID
POINTS 16 Float64
0 0 0
1.54651 0.0122551 0
1.54601 0.984334 0
0 1 0
0.508099 -0.00207523 0
1.02232 -0.000126157 0
1.5126 0.339642 0
1.51255 0.661397 0
1.02233 1.0009 0
0.50842 1.00291 0
0 0.666667 0
0 0.333333 0
1.01113 0.332859 0
0.505934 0.667471 0
0.506062 0.332101 0
1.01086 0.666392 0

CELLS 2 22
10 0 1 3 4 5 12 13 10 11 14
10 3 1 2 13 12 6 7 8 9 15

CELL_TYPES 2
69
69

CELL_DATA 2
POINT_DATA 16
VECTORS Y Float64
0 0 0.0
1.54651 0.0122551 0.0
1.54601 0.984334 0.0
0 1 0.0
0.508099 -0.00207523 0.0
1.02232 -0.000126157 0.0
1.5126 0.339642 0.0
1.51255 0.661397 0.0
1.02233 1.0009 0.0
0.50842 1.00291 0.0
0 0.666667 0.0
0 0.333333 0.0
1.01113 0.332859 0.0
0.505934 0.667471 0.0
0.506062 0.332101 0.0
1.01086 0.666392 0.0

CELL_DATA 2
POINT_DATA 16
VECTORS U Float64
0 0 0.0
0.546513 0.0122551 0.0
0.546012 -0.0156657 0.0
0 0 0.0
0.174766 -0.00207523 0.0
0.355652 -0.000126157 0.0
0.512602 0.00630904 0.0
0.512547 -0.00527015 0.0
0.355662 0.000895059 0.0
0.175086 0.00290847 0.0
0 0 0.0
0 0 0.0
0.344461 -0.000473915 0.0
0.1726 0.00080385 0.0
0.172729 -0.00123264 0.0
0.344196 -0.000274865 0.0

CELL_DATA 2
POINT_DATA 16
TENSORS E Float64
0.662989 -0.00326343  0.00
-0.00326343 0  0.00
0.00 0.00  0.00

0.749272 -0.0706706  0.00
-0.0706706 -0.00169928  0.00
0.00 0.00  0.00

0.811378 0.0952734  0.00
0.0952734 -0.0156638  0.00
0.00 0.00  0.00

0.698415 -0.00432413  0.00
-0.00432413 -0.0105252  0.00
0.00 0.00  0.00

0.691106 -0.0107926  0.00
-0.0107926 0.00108529  0.00
0.00 0.00  0.00

0.736314 -0.0255114  0.00
-0.0255114 -0.00422442  0.00
0.00 0.00  0.00

0.608483 -0.0328691  0.00
-0.0328691 -0.0360532  0.00
0.00 0.00  0.00

0.644869 0.0253522  0.00
0.0253522 -0.044567  0.00
0.00 0.00  0.00

0.73461 0.0360056  0.00
0.0360056 0.0166254  0.00
0.00 0.00  0.00

0.69009 -0.00124132  0.00
-0.00124132 0.0183839  0.00
0.00 0.00  0.00

0.693903 0.00617787  0.00
0.00617787 0  0.00
0.00 0.00  0.00

0.673251 0.000283883  0.00
0.000283883 0  0.00
0.00 0.00  0.00

0.671762 -0.012526  0.00
-0.012526 0.00648406  0.00
0.00 0.00  0.00

0.656464 0.00837189  0.00
0.00837189 0.00692902  0.00
0.00 0.00  0.00

0.659852 -0.00581069  0.00
-0.00581069 0.00574911  0.00
0.00 0.00  0.00

0.646581 0.0127055  0.00
0.0127055 -9.35853e-05  0.00
0.00 0.00  0.00


CELL_DATA 2
POINT_DATA 16
TENSORS S Float64
0.662989 -0.00326343  0.00
-0.00326343 0  0.00
0.00 0.00  0.00

0.749272 -0.0706706  0.00
-0.0706706 -0.00169928  0.00
0.00 0.00  0.00

0.811378 0.0952734  0.00
0.0952734 -0.0156638  0.00
0.00 0.00  0.00

0.698415 -0.00432413  0.00
-0.00432413 -0.0105252  0.00
0.00 0.00  0.00

0.691106 -0.0107926  0.00
-0.0107926 0.00108529  0.00
0.00 0.00  0.00

0.736314 -0.0255114  0.00
-0.0255114 -0.00422442  0.00
0.00 0.00  0.00

0.608483 -0.0328691  0.00
-0.0328691 -0.0360532  0.00
0.00 0.00  0.00

0.644869 0.0253522  0.00
0.0253522 -0.044567  0.00
0.00 0.00  0.00

0.73461 0.0360056  0.00
0.0360056 0.0166254  0.00
0.00 0.00  0.00

0.69009 -0.00124132  0.00
-0.00124132 0.0183839  0.00
0.00 0.00  0.00

0.693903 0.00617787  0.00
0.00617787 0  0.00
0.00 0.00  0.00

0.673251 0.000283883  0.00
0.000283883 0  0.00
0.00 0.00  0.00

0.671762 -0.012526  0.00
-0.012526 0.00648406  0.00
0.00 0.00  0.00

0.656464 0.00837189  0.00
0.00837189 0.00692902  0.00
0.00 0.00  0.00

0.659852 -0.00581069  0.00
-0.00581069 0.00574911  0.00
0.00 0.00  0.00

0.646581 0.0127055  0.00
0.0127055 -9.35853e-05  0.00
0.00 0.00  0.00


CELL_DATA 2
POINT_DATA 16
TENSORS Sigma Float64
1.01113 -0.00759068  0.00
-0.00759068 4.64516e-05  0.00
0.00 0.00  0.00

1.21263 -0.00326731  0.00
-0.00326731 -0.00524096  0.00
0.00 0.00  0.00

1.37395 -0.00193384  0.00
-0.00193384 -0.0158539  0.00
0.00 0.00  0.00

1.09379 0.00876103  0.00
0.00876103 -0.0063603  0.00
0.00 0.00  0.00

1.06583 -0.0148813  0.00
-0.0148813 0.000802213  0.00
0.00 0.00  0.00

1.16553 -0.0078466  0.00
-0.0078466 -0.00317433  0.00
0.00 0.00  0.00

0.945319 -0.0147813  0.00
-0.0147813 -0.0241185  0.00
0.00 0.00  0.00

1.02535 -0.00542503  0.00
-0.00542503 -0.0286274  0.00
0.00 0.00  0.00

1.14104 0.0144659  0.00
0.0144659 0.00975079  0.00
0.00 0.00  0.00

1.0456 0.00483601  0.00
0.00483601 0.0121543  0.00
0.00 0.00  0.00

1.07222 0.0147515  0.00
0.0147515 0.000167356  0.00
0.00 0.00  0.00

1.03131 0.000666133  0.00
0.000666133 3.52119e-07  0.00
0.00 0.00  0.00

1.02258 -0.000653067  0.00
-0.000653067 0.00412101  0.00
0.00 0.00  0.00

0.992318 0.00469798  0.00
0.00469798 0.00453852  0.00
0.00 0.00  0.00

0.999316 -0.00992167  0.00
-0.00992167 0.00386088  0.00
0.00 0.00  0.00

0.97986 0.00941049  0.00
0.00941049 -0.000136125  0.00
0.00 0.00  0.00


CELL_DATA 2
POINT_DATA 16
SCALARS ue float
LOOKUP_TABLE default
0.219788
0.287592
0.338367
0.244736
0.238931
0.271739
0.186856
0.209564
0.27126
0.238283
0.240789
0.226634
0.225884
0.215773
0.217753
0.209195

