<?xml version="1.0"?>
<VTKFile type="UnstructuredGrid">
  <UnstructuredGrid>
  <Piece NumberOfPoints="10"  NumberOfCells="1">
    <Points>
      <DataArray type="Float64" NumberOfComponents="3" format="ascii">
0 0 0
3.00006 0.000177877 0
0 3 0
1.00002 1.05409e-05 0
2.00005 5.55121e-05 0
1.99999 1.00005 0
0.999993 2.00001 0
0 2 0
0 1 0
0.999997 1.00001 0
      </DataArray>
    </Points>
    <Cells>
      <DataArray type="Int32" Name="connectivity" format="ascii">
 0 1 2 3 4 5 6 7 8 9
      </DataArray>
      <DataArray type="Int32" Name="offsets" format="ascii">
10
      </DataArray>
      <DataArray type="UInt8" Name="types" format="ascii">
69
      </DataArray>
    </Cells>
    <PointData>
      <DataArray type="Float64" NumberOfComponents="2" Name="Displacement" format="ascii">
0 0
6.06668e-05 0.000177877
0 0
2.15322e-05 1.05409e-05
4.67902e-05 5.55121e-05
-1.08387e-05 4.98934e-05
-7.28152e-06 7.73252e-06
0 0
0 0
-2.63146e-06 9.11696e-06
      </DataArray> 
    </PointData>
    <CellData>
    </CellData>
  </Piece>
  </UnstructuredGrid>
</VTKFile>
