# vtk DataFile Version 2.0
FEM, Created by Wutzow
ASCII
DATASET UNSTRUCTURED_GRID
POINTS 1150 Float64
0 0 0
0.998553 -0.00283572 0
1.00151 0.997019 0
0 1 0
0.0996993 -0.000105319 0
0.199463 -0.000278576 0
0.299263 -0.000495236 0
0.399093 -0.00074732 0
0.49895 -0.00102913 0
0.598833 -0.00133584 0
0.698737 -0.00166381 0
0.79866 -0.00201268 0
0.898596 -0.00239147 0
0.0332223 -2.26073e-05 0
0.0664561 -5.92217e-05 0
0.132949 -0.000157576 0
0.166204 -0.000215484 0
0.232726 -0.000346425 0
0.265993 -0.000418747 0
0.332536 -0.000575628 0
0.365813 -0.000659728 0
0.432376 -0.000838207 0
0.465662 -0.000932205 0
0.532242 -0.00112881 0
0.565536 -0.00123109 0
0.632132 -0.00144291 0
0.665433 -0.00155224 0
0.732043 -0.0017776 0
0.765351 -0.00189381 0
0.831971 -0.00213463 0
0.865283 -0.00226051 0
0.931911 -0.00252975 0
0.965229 -0.00267728 0
0.998967 0.0971866 0
0.999286 0.197244 0
0.999552 0.297298 0
0.999768 0.397335 0
0.999985 0.497328 0
1.0002 0.597306 0
1.00044 0.697261 0
1.00071 0.797198 0
1.00103 0.897119 0
0.998706 0.0304968 0
0.998842 0.0638403 0
0.999082 0.130544 0
0.999186 0.163897 0
0.99938 0.230601 0
0.999467 0.263953 0
0.999632 0.330659 0
0.9997 0.364011 0
0.999842 0.430671 0
0.999913 0.464003 0
1.00006 0.530661 0
1.00013 0.563987 0
1.00028 0.630632 0
1.00035 0.663951 0
1.00052 0.730581 0
1.00061 0.763893 0
1.00081 0.830511 0
1.00092 0.863818 0
1.00116 0.930425 0
1.00132 0.963722 0
0.901438 0.997568 0
0.801361 0.997967 0
0.701276 0.998326 0
0.601175 0.99866 0
0.501053 0.99897 0
0.400908 0.999252 0
0.300737 0.999505 0
0.200536 0.999721 0
0.1003 0.999895 0
0.968164 0.997245 0
0.9348 0.99742 0
0.868079 0.997708 0
0.834721 0.99784 0
0.768001 0.99809 0
0.734639 0.99821 0
0.667911 0.99844 0
0.634544 0.998551 0
0.567803 0.998766 0
0.534429 0.998869 0
0.467674 0.999067 0
0.434292 0.999161 0
0.36752 0.99934 0
0.33413 0.999424 0
0.26734 0.999581 0
0.23394 0.999654 0
0.167129 0.999785 0
0.133717 0.999842 0
0.0668766 0.999941 0
0.0334441 0.999977 0
0 0.9 0
0 0.8 0
0 0.7 0
0 0.6 0
0 0.5 0
0 0.4 0
0 0.3 0
0 0.2 0
0 0.1 0
0 0.966667 0
0 0.933333 0
0 0.866667 0
0 0.833333 0
0 0.766667 0
0 0.733333 0
0 0.666667 0
0 0.633333 0
0 0.566667 0
0 0.533333 0
0 0.466667 0
0 0.433333 0
0 0.366667 0
0 0.333333 0
0 0.266667 0
0 0.233333 0
0 0.166667 0
0 0.133333 0
0 0.0666667 0
0 0.0333333 0
0.499995 0.498963 0
0.707574 0.705443 0
0.293089 0.706658 0
0.706701 0.291163 0
0.292623 0.292371 0
0.493639 0.774896 0
0.224084 0.492807 0
0.775912 0.504919 0
0.506349 0.223039 0
0.830282 0.827355 0
0.170747 0.82927 0
0.82871 0.168383 0
0.170257 0.170275 0
0.641473 0.847393 0
0.151216 0.640505 0
0.359715 0.847534 0
0.848468 0.638605 0
0.848554 0.35711 0
0.151741 0.358999 0
0.358778 0.150492 0
0.640034 0.150356 0
0.567239 0.638917 0
0.364027 0.571349 0
0.64002 0.43154 0
0.432798 0.358999 0
0.437875 0.669111 0
0.666281 0.557138 0
0.33831 0.437777 0
0.55839 0.332614 0
0.467179 0.889224 0
0.109828 0.466319 0
0.890214 0.531219 0
0.532754 0.108713 0
0.740053 0.900524 0
0.0977618 0.738958 0
0.901788 0.258552 0
0.260452 0.0972583 0
0.901097 0.737909 0
0.260164 0.900155 0
0.739336 0.0976382 0
0.0993413 0.259577 0
0.604606 0.743927 0
0.254815 0.603716 0
0.745059 0.394055 0
0.395515 0.253977 0
0.385067 0.749811 0
0.750752 0.613448 0
0.249369 0.384311 0
0.614787 0.24809 0
0.901153 0.897693 0
0.100072 0.900014 0
0.899096 0.0974882 0
0.0996838 0.0997702 0
0.570972 0.915507 0
0.083271 0.569977 0
0.916588 0.427518 0
0.429182 0.0824195 0
0.794432 0.720379 0
0.277948 0.793501 0
0.721725 0.204308 0
0.205868 0.277316 0
0.728469 0.799494 0
0.198915 0.727508 0
0.800755 0.270189 0
0.271869 0.198299 0
0.486187 0.588728 0
0.580233 0.539895 0
0.409087 0.496421 0
0.544935 0.420035 0
0.652229 0.640985 0
0.353787 0.654526 0
0.642193 0.346567 0
0.346267 0.353917 0
0.650987 0.932087 0
0.0664492 0.649896 0
0.933256 0.347562 0
0.349358 0.0657919 0
0.928077 0.640461 0
0.641942 0.0707471 0
0.357739 0.927143 0
0.0721803 0.356987 0
0.821182 0.91792 0
0.080085 0.820016 0
0.919257 0.177443 0
0.179534 0.0797306 0
0.920794 0.817609 0
0.819031 0.077885 0
0.180262 0.919788 0
0.0798575 0.179812 0
0.515299 0.695501 0
0.308767 0.517045 0
0.706819 0.471914 0
0.473263 0.292163 0
0.555572 0.834195 0
0.16464 0.554673 0
0.835266 0.442964 0
0.444521 0.163734 0
0.428176 0.816347 0
0.182778 0.427393 0
0.817312 0.570268 0
0.571706 0.181578 0
0.452808 0.437143 0
0.965675 0.0972953 0
0.932384 0.0973949 0
0.932262 0.0640573 0
0.965416 0.0306157 0
0.965551 0.0639536 0
0.0997027 0.0331872 0
0.0996964 0.066479 0
0.0664348 0.0665239 0
0.0332029 0.0332695 0
0.0664504 0.0332329 0
0.901336 0.964276 0
0.90124 0.930983 0
0.934579 0.930836 0
0.968023 0.963957 0
0.934683 0.964126 0
0.0333586 0.900013 0
0.066716 0.900018 0
0.0667356 0.933353 0
0.0333823 0.966684 0
0.0333689 0.933349 0
0.898936 0.0641939 0
0.898769 0.0309009 0
0.932091 0.0307629 0
0.0664545 0.099855 0
0.0332266 0.0999321 0
0.0332164 0.0666009 0
0.934449 0.897508 0
0.967742 0.897316 0
0.967873 0.930635 0
0.100141 0.933308 0
0.100215 0.966602 0
0.0668012 0.966647 0
0.445466 0.58294 0
0.404746 0.577147 0
0.379049 0.546374 0
0.394069 0.521398 0
0.434782 0.527192 0
0.460482 0.557961 0
0.419765 0.55217 0
0.413253 0.636526 0
0.388637 0.603939 0
0.470084 0.615523 0
0.453981 0.642317 0
0.429361 0.609733 0
0.620094 0.467659 0
0.600164 0.503777 0
0.568465 0.499942 0
0.5567 0.459988 0
0.57663 0.423872 0
0.608325 0.427707 0
0.588396 0.463824 0
0.648773 0.473406 0
0.657526 0.515272 0
0.637598 0.551392 0
0.608915 0.545644 0
0.628845 0.509525 0
0.474662 0.350209 0
0.516526 0.341414 0
0.553907 0.361754 0
0.549422 0.390894 0
0.507552 0.399693 0
0.470173 0.379348 0
0.51204 0.370553 0
0.514227 0.42574 0
0.483518 0.431443 0
0.446138 0.411095 0
0.439468 0.385047 0
0.476845 0.405395 0
0.185753 0.628247 0
0.220285 0.615984 0
0.236186 0.644981 0
0.217553 0.686245 0
0.183011 0.698508 0
0.167112 0.669507 0
0.201651 0.657246 0
0.629178 0.812905 0
0.616889 0.778416 0
0.645892 0.762453 0
0.68718 0.780976 0
0.699473 0.815462 0
0.670474 0.831428 0
0.65818 0.796941 0
0.371024 0.184987 0
0.38327 0.219482 0
0.354293 0.235423 0
0.313078 0.216864 0
0.300842 0.182367 0
0.329812 0.166431 0
0.342052 0.200927 0
0.814056 0.369426 0
0.779557 0.38174 0
0.763629 0.352767 0
0.782195 0.311479 0
0.81669 0.299162 0
0.832623 0.328136 0
0.798126 0.340452 0
0.267568 0.63803 0
0.280326 0.672344 0
0.2617 0.713612 0
0.230309 0.720562 0
0.24894 0.679296 0
0.638932 0.731101 0
0.673254 0.718273 0
0.714535 0.736793 0
0.7215 0.768144 0
0.680215 0.749625 0
0.36122 0.266779 0
0.326923 0.279577 0
0.285706 0.261014 0
0.278788 0.229657 0
0.32 0.248221 0
0.732274 0.359757 0
0.719488 0.32546 0
0.738051 0.284173 0
0.769403 0.277182 0
0.750841 0.31847 0
0.456457 0.704374 0
0.475044 0.739636 0
0.457448 0.766538 0
0.421257 0.758177 0
0.402671 0.722912 0
0.420274 0.696012 0
0.438858 0.731276 0
0.702826 0.539732 0
0.73937 0.522326 0
0.767525 0.541095 0
0.759138 0.577271 0
0.722594 0.594679 0
0.694437 0.575909 0
0.730981 0.558502 0
0.30024 0.456126 0
0.262164 0.474469 0
0.232515 0.456641 0
0.240944 0.420476 0
0.279013 0.402136 0
0.30866 0.419958 0
0.27059 0.438303 0
0.541042 0.29609 0
0.523695 0.259565 0
0.542491 0.231392 0
0.578638 0.239743 0
0.595991 0.276265 0
0.577192 0.30444 0
0.559842 0.267917 0
0.783324 0.621834 0
0.815896 0.63022 0
0.830455 0.665862 0
0.812443 0.69312 0
0.779868 0.684736 0
0.765308 0.649092 0
0.797882 0.657478 0
0.376615 0.782386 0
0.368164 0.81496 0
0.332455 0.829526 0
0.3052 0.811515 0
0.313659 0.778942 0
0.349365 0.764379 0
0.34091 0.796952 0
0.623207 0.215512 0
0.631623 0.182934 0
0.667262 0.168341 0
0.694493 0.186326 0
0.686079 0.218905 0
0.650433 0.233498 0
0.65885 0.20092 0
0.216824 0.375878 0
0.184281 0.367441 0
0.169788 0.331773 0
0.18783 0.304545 0
0.220366 0.312981 0
0.234866 0.348646 0
0.202326 0.340212 0
0.369811 0.411521 0
0.401307 0.385262 0
0.414642 0.437359 0
0.376476 0.437571 0
0.407974 0.41131 0
0.422998 0.962578 0
0.445089 0.925902 0
0.478463 0.925807 0
0.489754 0.962388 0
0.456377 0.962485 0
0.0366029 0.422112 0
0.0732125 0.444219 0
0.073222 0.477552 0
0.0366126 0.488779 0
0.0366078 0.455445 0
0.963538 0.575278 0
0.926876 0.553248 0
0.926805 0.51992 0
0.963395 0.508623 0
0.963466 0.541952 0
0.576815 0.0353483 0
0.554789 0.0720312 0
0.521489 0.0721327 0
0.510222 0.035552 0
0.543517 0.0354514 0
0.976161 0.61169 0
0.952119 0.626075 0
0.915454 0.60405 0
0.902833 0.567635 0
0.939496 0.589663 0
0.613203 0.0226923 0
0.627573 0.0467199 0
0.605546 0.0834052 0
0.56915 0.0960605 0
0.591181 0.059377 0
0.386514 0.975217 0
0.372124 0.95118 0
0.394225 0.914508 0
0.430705 0.901868 0
0.408609 0.938543 0
0.0240628 0.385665 0
0.0481229 0.371327 0
0.0847263 0.393432 0
0.0972757 0.429876 0
0.060666 0.407773 0
0.463683 0.67791 0
0.48949 0.686706 0
0.508078 0.721966 0
0.500858 0.748431 0
0.482267 0.713171 0
0.328464 0.4642 0
0.318616 0.490623 0
0.280538 0.508969 0
0.25231 0.500889 0
0.29039 0.482547 0
0.662286 0.444999 0
0.684552 0.458457 0
0.693307 0.500322 0
0.679794 0.52873 0
0.671039 0.486864 0
0.729849 0.482916 0
0.75288 0.493918 0
0.716338 0.511324 0
0.446289 0.336721 0
0.459777 0.314442 0
0.501636 0.305648 0
0.530012 0.319132 0
0.48815 0.327929 0
0.484294 0.269122 0
0.495323 0.246081 0
0.512667 0.282607 0
0.721966 0.674778 0
0.736358 0.644112 0
0.76548 0.715402 0
0.736528 0.710423 0
0.750917 0.679758 0
0.323745 0.721045 0
0.354405 0.73543 0
0.282994 0.764553 0
0.288041 0.735606 0
0.318702 0.749994 0
0.676061 0.276807 0
0.645422 0.262449 0
0.71672 0.23326 0
0.711712 0.262212 0
0.681072 0.247856 0
0.278209 0.323019 0
0.263791 0.353665 0
0.234785 0.282338 0
0.263703 0.287356 0
0.249287 0.318002 0
0.409846 0.664252 0
0.381816 0.65939 0
0.3572 0.6268 0
0.360614 0.599075 0
0.385227 0.631664 0
0.340964 0.409823 0
0.343616 0.38187 0
0.37511 0.355614 0
0.403953 0.357308 0
0.372461 0.383567 0
0.385492 0.476875 0
0.3619 0.457327 0
0.438236 0.456903 0
0.423662 0.476662 0
0.400068 0.457117 0
0.495393 0.528884 0
0.49079 0.558806 0
0.439389 0.497271 0
0.469692 0.498118 0
0.465087 0.528039 0
0.553486 0.526253 0
[...]
CELL_DATA 242
POINT_DATA 1150
VECTORS Y Float64
0 0 0.0
0.998553 -0.00283572 0.0
1.00151 0.997019 0.0
0 1 0.0
0.0996993 -0.000105319 0.0
0.199463 -0.000278576 0.0
0.299263 -0.000495236 0.0
0.399093 -0.00074732 0.0
0.49895 -0.00102913 0.0
0.598833 -0.00133584 0.0
0.698737 -0.00166381 0.0
0.79866 -0.00201268 0.0
0.898596 -0.00239147 0.0
0.0332223 -2.26073e-05 0.0
0.0664561 -5.92217e-05 0.0
0.132949 -0.000157576 0.0
0.166204 -0.000215484 0.0
0.232726 -0.000346425 0.0
0.265993 -0.000418747 0.0
0.332536 -0.000575628 0.0
0.365813 -0.000659728 0.0
0.432376 -0.000838207 0.0
0.465662 -0.000932205 0.0
0.532242 -0.00112881 0.0
0.565536 -0.00123109 0.0
0.632132 -0.00144291 0.0
0.665433 -0.00155224 0.0
0.732043 -0.0017776 0.0
0.765351 -0.00189381 0.0
0.831971 -0.00213463 0.0
0.865283 -0.00226051 0.0
0.931911 -0.00252975 0.0
0.965229 -0.00267728 0.0
0.998967 0.0971866 0.0
0.999286 0.197244 0.0
0.999552 0.297298 0.0
0.999768 0.397335 0.0
0.999985 0.497328 0.0
1.0002 0.597306 0.0
1.00044 0.697261 0.0
1.00071 0.797198 0.0
1.00103 0.897119 0.0
0.998706 0.0304968 0.0
0.998842 0.0638403 0.0
0.999082 0.130544 0.0
0.999186 0.163897 0.0
0.99938 0.230601 0.0
0.999467 0.263953 0.0
0.999632 0.330659 0.0
0.9997 0.364011 0.0
0.999842 0.430671 0.0
0.999913 0.464003 0.0
1.00006 0.530661 0.0
1.00013 0.563987 0.0
1.00028 0.630632 0.0
1.00035 0.663951 0.0
1.00052 0.730581 0.0
1.00061 0.763893 0.0
1.00081 0.830511 0.0
1.00092 0.863818 0.0
1.00116 0.930425 0.0
1.00132 0.963722 0.0
0.901438 0.997568 0.0
0.801361 0.997967 0.0
0.701276 0.998326 0.0
0.601175 0.99866 0.0
0.501053 0.99897 0.0
0.400908 0.999252 0.0
0.300737 0.999505 0.0
0.200536 0.999721 0.0
0.1003 0.999895 0.0
0.968164 0.997245 0.0
0.9348 0.99742 0.0
0.868079 0.997708 0.0
0.834721 0.99784 0.0
0.768001 0.99809 0.0
0.734639 0.99821 0.0
0.667911 0.99844 0.0
0.634544 0.998551 0.0
0.567803 0.998766 0.0
0.534429 0.998869 0.0
0.467674 0.999067 0.0
0.434292 0.999161 0.0
0.36752 0.99934 0.0
0.33413 0.999424 0.0
0.26734 0.999581 0.0
0.23394 0.999654 0.0
0.167129 0.999785 0.0
0.133717 0.999842 0.0
0.0668766 0.999941 0.0
0.0334441 0.999977 0.0
0 0.9 0.0
0 0.8 0.0
0 0.7 0.0
0 0.6 0.0
0 0.5 0.0
0 0.4 0.0
0 0.3 0.0
0 0.2 0.0
0 0.1 0.0
0 0.966667 0.0
0 0.933333 0.0
0 0.866667 0.0
0 0.833333 0.0
0 0.766667 0.0
0 0.733333 0.0
0 0.666667 0.0
0 0.633333 0.0
0 0.566667 0.0
0 0.533333 0.0
0 0.466667 0.0
0 0.433333 0.0
0 0.366667 0.0
0 0.333333 0.0
0 0.266667 0.0
0 0.233333 0.0
0 0.166667 0.0
0 0.133333 0.0
0 0.0666667 0.0
0 0.0333333 0.0
0.499995 0.498963 0.0
0.707574 0.705443 0.0
0.293089 0.706658 0.0
0.706701 0.291163 0.0
0.292623 0.292371 0.0
0.493639 0.774896 0.0
0.224084 0.492807 0.0
0.775912 0.504919 0.0
0.506349 0.223039 0.0
0.830282 0.827355 0.0
0.170747 0.82927 0.0
0.82871 0.168383 0.0
0.170257 0.170275 0.0
0.641473 0.847393 0.0
0.151216 0.640505 0.0
0.359715 0.847534 0.0
0.848468 0.638605 0.0
0.848554 0.35711 0.0
0.151741 0.358999 0.0
0.358778 0.150492 0.0
0.640034 0.150356 0.0
0.567239 0.638917 0.0
0.364027 0.571349 0.0
0.64002 0.43154 0.0
0.432798 0.358999 0.0
0.437875 0.669111 0.0
0.666281 0.557138 0.0
0.33831 0.437777 0.0
0.55839 0.332614 0.0
0.467179 0.889224 0.0
0.109828 0.466319 0.0
0.890214 0.531219 0.0
0.532754 0.108713 0.0
0.740053 0.900524 0.0
0.0977618 0.738958 0.0
0.901788 0.258552 0.0
0.260452 0.0972583 0.0
0.901097 0.737909 0.0
0.260164 0.900155 0.0
0.739336 0.0976382 0.0
0.0993413 0.259577 0.0
0.604606 0.743927 0.0
0.254815 0.603716 0.0
0.745059 0.394055 0.0
0.395515 0.253977 0.0
0.385067 0.749811 0.0
0.750752 0.613448 0.0
0.249369 0.384311 0.0
0.614787 0.24809 0.0
0.901153 0.897693 0.0
0.100072 0.900014 0.0
0.899096 0.0974882 0.0
0.0996838 0.0997702 0.0
0.570972 0.915507 0.0
0.083271 0.569977 0.0
0.916588 0.427518 0.0
0.429182 0.0824195 0.0
0.794432 0.720379 0.0
0.277948 0.793501 0.0
0.721725 0.204308 0.0
0.205868 0.277316 0.0
0.728469 0.799494 0.0
0.198915 0.727508 0.0
0.800755 0.270189 0.0
0.271869 0.198299 0.0
0.486187 0.588728 0.0
0.580233 0.539895 0.0
0.409087 0.496421 0.0
0.544935 0.420035 0.0
0.652229 0.640985 0.0
0.353787 0.654526 0.0
0.642193 0.346567 0.0
0.346267 0.353917 0.0
0.650987 0.932087 0.0
0.0664492 0.649896 0.0
0.933256 0.347562 0.0
0.349358 0.0657919 0.0
0.928077 0.640461 0.0
0.641942 0.0707471 0.0
0.357739 0.927143 0.0
0.0721803 0.356987 0.0
0.821182 0.91792 0.0
0.080085 0.820016 0.0
0.919257 0.177443 0.0
0.179534 0.0797306 0.0
0.920794 0.817609 0.0
0.819031 0.077885 0.0
0.180262 0.919788 0.0
0.0798575 0.179812 0.0
0.515299 0.695501 0.0
0.308767 0.517045 0.0
0.706819 0.471914 0.0
0.473263 0.292163 0.0
0.555572 0.834195 0.0
0.16464 0.554673 0.0
0.835266 0.442964 0.0
0.444521 0.163734 0.0
0.428176 0.816347 0.0
0.182778 0.427393 0.0
0.817312 0.570268 0.0
0.571706 0.181578 0.0
0.452808 0.437143 0.0
0.965675 0.0972953 0.0
0.932384 0.0973949 0.0
0.932262 0.0640573 0.0
0.965416 0.0306157 0.0
0.965551 0.0639536 0.0
0.0997027 0.0331872 0.0
0.0996964 0.066479 0.0
0.0664348 0.0665239 0.0
0.0332029 0.0332695 0.0
0.0664504 0.0332329 0.0
0.901336 0.964276 0.0
0.90124 0.930983 0.0
0.934579 0.930836 0.0
0.968023 0.963957 0.0
0.934683 0.964126 0.0
0.0333586 0.900013 0.0
0.066716 0.900018 0.0
0.0667356 0.933353 0.0
0.0333823 0.966684 0.0
0.0333689 0.933349 0.0
0.898936 0.0641939 0.0
0.898769 0.0309009 0.0
0.932091 0.0307629 0.0
0.0664545 0.099855 0.0
0.0332266 0.0999321 0.0
0.0332164 0.0666009 0.0
0.934449 0.897508 0.0
0.967742 0.897316 0.0
0.967873 0.930635 0.0
0.100141 0.933308 0.0
0.100215 0.966602 0.0
0.0668012 0.966647 0.0
0.445466 0.58294 0.0
0.404746 0.577147 0.0
0.379049 0.546374 0.0
0.394069 0.521398 0.0
0.434782 0.527192 0.0
0.460482 0.557961 0.0
0.419765 0.55217 0.0
0.413253 0.636526 0.0
0.388637 0.603939 0.0
0.470084 0.615523 0.0
0.453981 0.642317 0.0
0.429361 0.609733 0.0
0.620094 0.467659 0.0
0.600164 0.503777 0.0
0.568465 0.499942 0.0
0.5567 0.459988 0.0
0.57663 0.423872 0.0
0.608325 0.427707 0.0
0.588396 0.463824 0.0
0.648773 0.473406 0.0
0.657526 0.515272 0.0
0.637598 0.551392 0.0
0.608915 0.545644 0.0
0.628845 0.509525 0.0
0.474662 0.350209 0.0
0.516526 0.341414 0.0
0.553907 0.361754 0.0
0.549422 0.390894 0.0
0.507552 0.399693 0.0
0.470173 0.379348 0.0
0.51204 0.370553 0.0
0.514227 0.42574 0.0
0.483518 0.431443 0.0
0.446138 0.411095 0.0
0.439468 0.385047 0.0
0.476845 0.405395 0.0
0.185753 0.628247 0.0
0.220285 0.615984 0.0
0.236186 0.644981 0.0
0.217553 0.686245 0.0
0.183011 0.698508 0.0
0.167112 0.669507 0.0
0.201651 0.657246 0.0
0.629178 0.812905 0.0
0.616889 0.778416 0.0
0.645892 0.762453 0.0
0.68718 0.780976 0.0
0.699473 0.815462 0.0
0.670474 0.831428 0.0
0.65818 0.796941 0.0
0.371024 0.184987 0.0
0.38327 0.219482 0.0
0.354293 0.235423 0.0
0.313078 0.216864 0.0
0.300842 0.182367 0.0
0.329812 0.166431 0.0
0.342052 0.200927 0.0
0.814056 0.369426 0.0
0.779557 0.38174 0.0
0.763629 0.352767 0.0
0.782195 0.311479 0.0
0.81669 0.299162 0.0
0.832623 0.328136 0.0
0.798126 0.340452 0.0
0.267568 0.63803 0.0
0.280326 0.672344 0.0
0.2617 0.713612 0.0
0.230309 0.720562 0.0
0.24894 0.679296 0.0
0.638932 0.731101 0.0
0.673254 0.718273 0.0
0.714535 0.736793 0.0
0.7215 0.768144 0.0
0.680215 0.749625 0.0
0.36122 0.266779 0.0
0.326923 0.279577 0.0
0.285706 0.261014 0.0
0.278788 0.229657 0.0
0.32 0.248221 0.0
0.732274 0.359757 0.0
0.719488 0.32546 0.0
0.738051 0.284173 0.0
0.769403 0.277182 0.0
0.750841 0.31847 0.0
0.456457 0.704374 0.0
0.475044 0.739636 0.0
0.457448 0.766538 0.0
0.421257 0.758177 0.0
0.402671 0.722912 0.0
0.420274 0.696012 0.0
0.438858 0.731276 0.0
0.702826 0.539732 0.0
0.73937 0.522326 0.0
0.767525 0.541095 0.0
0.759138 0.577271 0.0
0.722594 0.594679 0.0
0.694437 0.575909 0.0
0.730981 0.558502 0.0
0.30024 0.456126 0.0
0.262164 0.474469 0.0
0.232515 0.456641 0.0
0.240944 0.420476 0.0
0.279013 0.402136 0.0
0.30866 0.419958 0.0
0.27059 0.438303 0.0
0.541042 0.29609 0.0
0.523695 0.259565 0.0
0.542491 0.231392 0.0
0.578638 0.239743 0.0
0.595991 0.276265 0.0
0.577192 0.30444 0.0
0.559842 0.267917 0.0
0.783324 0.621834 0.0
0.815896 0.63022 0.0
0.830455 0.665862 0.0
0.812443 0.69312 0.0
0.779868 0.684736 0.0
0.765308 0.649092 0.0
0.797882 0.657478 0.0
0.376615 0.782386 0.0
0.368164 0.81496 0.0
0.332455 0.829526 0.0
0.3052 0.811515 0.0
0.313659 0.778942 0.0
0.349365 0.764379 0.0
0.34091 0.796952 0.0
0.623207 0.215512 0.0
0.631623 0.182934 0.0
0.667262 0.168341 0.0
0.694493 0.186326 0.0
0.686079 0.218905 0.0
0.650433 0.233498 0.0
0.65885 0.20092 0.0
0.216824 0.375878 0.0
0.184281 0.367441 0.0
0.169788 0.331773 0.0
0.18783 0.304545 0.0
0.220366 0.312981 0.0
0.234866 0.348646 0.0
0.202326 0.340212 0.0
0.369811 0.411521 0.0
0.401307 0.385262 0.0
0.414642 0.437359 0.0
0.376476 0.437571 0.0
0.407974 0.41131 0.0
0.422998 0.962578 0.0
0.445089 0.925902 0.0
0.478463 0.925807 0.0
0.489754 0.962388 0.0
0.456377 0.962485 0.0
0.0366029 0.422112 0.0
0.0732125 0.444219 0.0
0.073222 0.477552 0.0
0.0366126 0.488779 0.0
0.0366078 0.455445 0.0
0.963538 0.575278 0.0
0.926876 0.553248 0.0
0.926805 0.51992 0.0
0.963395 0.508623 0.0
0.963466 0.541952 0.0
0.576815 0.0353483 0.0
0.554789 0.0720312 0.0
0.521489 0.0721327 0.0
0.510222 0.035552 0.0
0.543517 0.0354514 0.0
0.976161 0.61169 0.0
0.952119 0.626075 0.0
0.915454 0.60405 0.0
0.902833 0.567635 0.0
0.939496 0.589663 0.0
0.613203 0.0226923 0.0
0.627573 0.0467199 0.0
0.605546 0.0834052 0.0
0.56915 0.0960605 0.0
0.591181 0.059377 0.0
0.386514 0.975217 0.0
0.372124 0.95118 0.0
0.394225 0.914508 0.0
0.430705 0.901868 0.0
0.408609 0.938543 0.0
0.0240628 0.385665 0.0
0.0481229 0.371327 0.0
0.0847263 0.393432 0.0
0.0972757 0.429876 0.0
0.060666 0.407773 0.0
0.463683 0.67791 0.0
0.48949 0.686706 0.0
0.508078 0.721966 0.0
0.500858 0.748431 0.0
0.482267 0.713171 0.0
0.328464 0.4642 0.0
0.318616 0.490623 0.0
0.280538 0.508969 0.0
0.25231 0.500889 0.0
0.29039 0.482547 0.0
0.662286 0.444999 0.0
0.684552 0.458457 0.0
0.693307 0.500322 0.0
0.679794 0.52873 0.0
0.671039 0.486864 0.0
0.729849 0.482916 0.0
0.75288 0.493918 0.0
0.716338 0.511324 0.0
0.446289 0.336721 0.0
0.459777 0.314442 0.0
0.501636 0.305648 0.0
0.530012 0.319132 0.0
0.48815 0.327929 0.0
0.484294 0.269122 0.0
0.495323 0.246081 0.0
0.512667 0.282607 0.0
0.721966 0.674778 0.0
0.736358 0.644112 0.0
0.76548 0.715402 0.0
0.736528 0.710423 0.0
0.750917 0.679758 0.0
0.323745 0.721045 0.0
0.354405 0.73543 0.0
0.282994 0.764553 0.0
0.288041 0.735606 0.0
0.318702 0.749994 0.0
0.676061 0.276807 0.0
0.645422 0.262449 0.0
0.71672 0.23326 0.0
0.711712 0.262212 0.0
0.681072 0.247856 0.0
0.278209 0.323019 0.0
0.263791 0.353665 0.0
0.234785 0.282338 0.0
0.263703 0.287356 0.0
0.249287 0.318002 0.0
0.409846 0.664252 0.0
0.381816 0.65939 0.0
0.3572 0.6268 0.0
0.360614 0.599075 0.0
0.385227 0.631664 0.0
0.340964 0.409823 0.0
0.343616 0.38187 0.0
0.37511 0.355614 0.0
0.403953 0.357308 0.0
0.372461 0.383567 0.0
0.385492 0.476875 0.0
0.3619 0.457327 0.0
0.438236 0.456903 0.0
0.423662 0.476662 0.0
0.400068 0.457117 0.0
0.495393 0.528884 0.0
0.49079 0.558806 0.0
0.439389 0.497271 0.0
0.469692 0.498118 0.0
0.465087 0.528039 0.0
0.553486 0.526253 0.0
0.52674 0.512609 0.0
0.514977 0.472654 0.0
0.529957 0.446344 0.0
0.541721 0.486299 0.0
0.862382 0.602809 0.0
0.876298 0.567014 0.0
0.901541 0.639842 0.0
0.875005 0.639223 0.0
0.888918 0.603429 0.0
0.60427 0.136478 0.0
0.56851 0.122597 0.0
0.641309 0.0972834 0.0
0.640673 0.12382 0.0
0.604909 0.109941 0.0
0.395534 0.861435 0.0
0.431356 0.875331 0.0
0.358395 0.900607 0.0
0.359054 0.87407 0.0
0.394878 0.887971 0.0
0.137774 0.394773 0.0
0.123803 0.430546 0.0
0.0987 0.357661 0.0
0.12522 0.358332 0.0
0.11125 0.394104 0.0
0.714201 0.965726 0.0
0.727126 0.933126 0.0
0.760482 0.933007 0.0
0.780918 0.965488 0.0
0.74756 0.965609 0.0
0.0325838 0.712991 0.0
0.065171 0.725977 0.0
0.0651816 0.759312 0.0
0.0325945 0.779659 0.0
0.032589 0.746325 0.0
0.966964 0.284382 0.0
0.934376 0.271465 0.0
0.934289 0.238122 0.0
0.966789 0.217688 0.0
0.966878 0.251035 0.0
0.286335 0.0320901 0.0
0.273398 0.0646746 0.0
0.240121 0.0647478 0.0
0.219792 0.0322356 0.0
0.253062 0.032165 0.0
0.9675 0.777442 0.0
0.934298 0.757678 0.0
0.93421 0.724357 0.0
0.967323 0.710808 0.0
0.967409 0.744126 0.0
0.778892 0.0312054 0.0
0.759118 0.0644223 0.0
0.725805 0.064538 0.0
0.712272 0.0314374 0.0
0.745581 0.0313226 0.0
0.220413 0.966535 0.0
0.240289 0.933346 0.0
0.273679 0.933273 0.0
0.287204 0.966389 0.0
0.25381 0.966464 0.0
0.0331065 0.219866 0.0
0.0662205 0.239725 0.0
0.0662312 0.273056 0.0
0.0331174 0.28653 0.0
0.0331122 0.253198 0.0
0.501777 0.897988 0.0
0.536375 0.906749 0.0
0.547667 0.943329 0.0
0.524361 0.97115 0.0
0.513065 0.934569 0.0
0.100978 0.500872 0.0
0.0921257 0.535424 0.0
0.055509 0.546654 0.0
0.027752 0.523329 0.0
0.0643667 0.512103 0.0
0.899006 0.496653 0.0
0.907797 0.462086 0.0
0.944386 0.450789 0.0
0.972185 0.47406 0.0
0.935595 0.485355 0.0
0.498226 0.0999515 0.0
0.463702 0.0911871 0.0
0.452444 0.0546048 0.0
0.4757 0.0267885 0.0
0.486965 0.0633702 0.0
0.866008 0.671709 0.0
0.883551 0.70481 0.0
0.865543 0.732067 0.0
0.829988 0.726224 0.0
0.847997 0.698966 0.0
0.326537 0.865078 0.0
0.293353 0.882619 0.0
0.266089 0.864604 0.0
0.272018 0.829053 0.0
0.299275 0.847067 0.0
0.673136 0.132785 0.0
0.706237 0.115213 0.0
0.733472 0.133195 0.0
0.727601 0.168752 0.0
0.700368 0.150769 0.0
0.13427 0.32586 0.0
0.116804 0.292719 0.0
0.134848 0.265496 0.0
0.170357 0.271409 0.0
0.152316 0.298635 0.0
0.475996 0.851115 0.0
0.484816 0.813006 0.0
0.51428 0.794664 0.0
0.534925 0.81443 0.0
0.526111 0.852541 0.0
0.496647 0.870884 0.0
0.505462 0.832774 0.0
0.147911 0.475154 0.0
0.185997 0.483984 0.0
0.204273 0.51343 0.0
0.184458 0.534053 0.0
0.146366 0.525223 0.0
0.128095 0.495772 0.0
0.166183 0.504604 0.0
0.852113 0.522452 0.0
0.814013 0.513685 0.0
0.795697 0.484267 0.0
0.815482 0.463616 0.0
0.853582 0.472383 0.0
0.871898 0.501801 0.0
0.833797 0.493034 0.0
0.523959 0.146822 0.0
0.515157 0.184931 0.0
0.485738 0.203272 0.0
0.465128 0.183504 0.0
0.473935 0.145396 0.0
0.503345 0.127056 0.0
0.494545 0.165164 0.0
0.592145 0.708924 0.0
0.57969 0.673921 0.0
0.595569 0.639608 0.0
0.623899 0.640298 0.0
0.636354 0.6753 0.0
0.62048 0.709614 0.0
0.608022 0.674611 0.0
0.291222 0.592932 0.0
0.327626 0.582143 0.0
0.320793 0.637593 0.0
0.287802 0.620657 0.0
0.324209 0.609868 0.0
0.710047 0.406551 0.0
0.675034 0.419046 0.0
0.640746 0.403215 0.0
0.64147 0.374891 0.0
0.67648 0.362398 0.0
0.710769 0.378227 0.0
0.675758 0.390722 0.0
0.407942 0.288985 0.0
0.42037 0.323992 0.0
0.362688 0.320604 0.0
0.379104 0.287291 0.0
0.391528 0.322299 0.0
0.800208 0.851747 0.0
0.770132 0.876137 0.0
0.736186 0.866848 0.0
0.732325 0.833171 0.0
0.762408 0.808784 0.0
0.796345 0.818072 0.0
0.766267 0.84246 0.0
0.14641 0.799169 0.0
0.122082 0.769065 0.0
0.131481 0.735147 0.0
0.165199 0.73133 0.0
0.189527 0.761429 0.0
0.180137 0.79535 0.0
0.155806 0.76525 0.0
0.853071 0.198437 0.0
0.877431 0.228493 0.0
0.868109 0.262432 0.0
0.834432 0.266311 0.0
0.810079 0.236254 0.0
0.819397 0.202319 0.0
0.843754 0.232374 0.0
0.20033 0.14594 0.0
0.230395 0.121601 0.0
0.264261 0.130939 0.0
0.268066 0.164619 0.0
0.237995 0.188963 0.0
0.204124 0.179621 0.0
0.234196 0.155282 0.0
0.670675 0.662472 0.0
0.689124 0.683958 0.0
0.654803 0.696787 0.0
0.333557 0.671905 0.0
0.313324 0.689282 0.0
0.300561 0.654969 0.0
0.663697 0.3281 0.0
0.6852 0.309632 0.0
0.697985 0.34393 0.0
0.328384 0.333402 0.0
0.310502 0.312887 0.0
0.344804 0.300091 0.0
0.571569 0.605909 0.0
0.575901 0.572902 0.0
0.604228 0.573593 0.0
0.628226 0.60729 0.0
0.599898 0.6066 0.0
0.661596 0.585087 0.0
0.656912 0.613036 0.0
0.632912 0.579341 0.0
0.577358 0.395548 0.0
0.609777 0.371059 0.0
0.609051 0.399383 0.0
0.586323 0.337267 0.0
0.614258 0.341918 0.0
0.581841 0.366407 0.0
0.581036 0.943225 0.0
0.591103 0.970943 0.0
0.557733 0.971048 0.0
0.0555163 0.579988 0.0
0.0277594 0.589996 0.0
0.0277556 0.556662 0.0
0.944315 0.417455 0.0
0.972042 0.407395 0.0
0.972114 0.440728 0.0
0.419154 0.0546975 0.0
0.409125 0.0269753 0.0
0.442411 0.0268834 0.0
0.47182 0.788715 0.0
0.449999 0.802531 0.0
0.413803 0.794169 0.0
0.399433 0.77199 0.0
0.435626 0.780354 0.0
0.789711 0.526703 0.0
0.803511 0.548486 0.0
0.795126 0.584661 0.0
0.772939 0.599054 0.0
0.781325 0.562878 0.0
0.210313 0.471003 0.0
0.196545 0.449198 0.0
0.204977 0.413034 0.0
0.227174 0.398674 0.0
0.218745 0.434838 0.0
0.528136 0.20922 0.0
0.549921 0.1954 0.0
0.586066 0.203749 0.0
0.600426 0.22592 0.0
0.564279 0.217571 0.0
0.767097 0.906325 0.0
0.79414 0.912124 0.0
0.814574 0.944603 0.0
0.807967 0.971285 0.0
0.787528 0.938806 0.0
0.0918704 0.765977 0.0
0.0859781 0.792997 0.0
0.0533884 0.813348 0.0
0.0266935 0.806676 0.0
0.0592856 0.78633 0.0
0.907615 0.231516 0.0
0.913438 0.20448 0.0
0.945933 0.184044 0.0
0.972609 0.190645 0.0
0.940113 0.211084 0.0
0.233476 0.0914187 0.0
0.206503 0.0855762 0.0
0.186183 0.0530614 0.0
0.192826 0.0263916 0.0
0.21315 0.0589061 0.0
0.974068 0.804001 0.0
0.947431 0.810804 0.0
0.914225 0.791043 0.0
0.907659 0.764477 0.0
0.940863 0.784242 0.0
0.805452 0.02462 0.0
0.812243 0.0512526 0.0
0.792466 0.0844712 0.0
0.7659 0.0910555 0.0
0.78568 0.0578384 0.0
0.193772 0.973077 0.0
0.187014 0.946433 0.0
0.206899 0.913247 0.0
0.233533 0.906703 0.0
0.213653 0.939891 0.0
0.0266207 0.193275 0.0
0.0532398 0.186545 0.0
0.0863511 0.206401 0.0
0.0928457 0.232989 0.0
0.0597295 0.213135 0.0
0.115584 0.706142 0.0
0.133402 0.673324 0.0
0.149299 0.702328 0.0
0.707191 0.882817 0.0
0.674331 0.865106 0.0
0.703329 0.849139 0.0
0.293222 0.115006 0.0
0.325997 0.132751 0.0
0.297034 0.148687 0.0
0.884047 0.291407 0.0
0.866302 0.32426 0.0
0.850368 0.295285 0.0
0.87749 0.767722 0.0
0.853885 0.797537 0.0
0.818326 0.791697 0.0
0.806376 0.756038 0.0
0.841933 0.761881 0.0
0.230351 0.876531 0.0
0.200545 0.852903 0.0
0.206486 0.817352 0.0
0.242219 0.805429 0.0
0.236284 0.84098 0.0
0.769125 0.121221 0.0
0.798916 0.144802 0.0
0.793048 0.180361 0.0
0.757386 0.192336 0.0
0.763259 0.156779 0.0
0.122988 0.229812 0.0
0.146627 0.200045 0.0
0.182126 0.205956 0.0
0.193996 0.241636 0.0
0.158491 0.235727 0.0
0.945832 0.1507 0.0
0.972403 0.12395 0.0
0.972509 0.157297 0.0
0.847925 0.944474 0.0
0.874676 0.971023 0.0
0.841323 0.971157 0.0
0.152916 0.0531223 0.0
0.126305 0.0265104 0.0
0.159563 0.0264536 0.0
0.0533992 0.846683 0.0
0.0267047 0.873345 0.0
0.0266988 0.84001 0.0
0.974281 0.870629 0.0
0.947535 0.844123 0.0
0.974171 0.837315 0.0
0.872082 0.0243706 0.0
0.84556 0.0511292 0.0
0.838766 0.0244973 0.0
0.12696 0.973196 0.0
0.153614 0.946494 0.0
0.160368 0.973139 0.0
0.0266095 0.12661 0.0
0.0532291 0.153214 0.0
0.0266154 0.159942 0.0
0.560702 0.861299 0.0
0.565835 0.888403 0.0
0.531241 0.879645 0.0
0.137518 0.559778 0.0
0.110395 0.564879 0.0
0.119246 0.530325 0.0
0.862373 0.437814 0.0
0.889481 0.432665 0.0
0.880689 0.467234 0.0
0.43941 0.136629 0.0
0.434297 0.109525 0.0
0.468819 0.118292 0.0
0.912541 0.15079 0.0
0.90582 0.124138 0.0
0.93911 0.124046 0.0
0.152918 0.0864142 0.0
0.126301 0.0930942 0.0
0.126307 0.0598027 0.0
0.847842 0.911181 0.0
0.874499 0.904439 0.0
0.874584 0.937731 0.0
0.0867436 0.846682 0.0
0.0934057 0.873348 0.0
0.0600558 0.87335 0.0
0.907695 0.870996 0.0
0.914242 0.844301 0.0
0.940989 0.870814 0.0
0.872405 0.0909562 0.0
0.845717 0.0844217 0.0
0.872247 0.0576631 0.0
0.126801 0.906609 0.0
0.153531 0.9132 0.0
0.126877 0.939903 0.0
0.093079 0.126451 0.0
0.08647 0.153132 0.0
0.0598436 0.126535 0.0
0.750457 0.773122 0.0
0.772444 0.74675 0.0
0.784391 0.782411 0.0
0.225254 0.749509 0.0
0.251599 0.771507 0.0
0.21587 0.783431 0.0
0.774411 0.248229 0.0
0.748068 0.226269 0.0
0.783732 0.214295 0.0
0.249875 0.22464 0.0
0.227874 0.250979 0.0
0.215999 0.2153 0.0
0.574835 0.727787 0.0
0.545066 0.711645 0.0
0.532613 0.67664 0.0
0.549927 0.657779 0.0
0.562378 0.692783 0.0
0.272802 0.574826 0.0
0.290786 0.545936 0.0
0.327185 0.535148 0.0
0.345605 0.553249 0.0
0.309205 0.56404 0.0
0.732313 0.420008 0.0
0.719566 0.445961 0.0
0.6973 0.432504 0.0
0.421428 0.266707 0.0
0.447345 0.279436 0.0
0.433858 0.301714 0.0
0.454174 0.864932 0.0
0.441173 0.84064 0.0
0.462996 0.826824 0.0
0.134147 0.453346 0.0
0.158464 0.440371 0.0
0.172229 0.462178 0.0
0.382537 0.83714 0.0
0.405358 0.826744 0.0
0.418355 0.851038 0.0