# vtk DataFile Version 2.0
FEM, Created by Wutzow
ASCII
DATASET UNSTRUCTURED_GRID
POINTS 1150 Float64
0 0 0
0.998558 -0.00283769 0
1.00152 0.997022 0
0 1 0
0.0996998 -0.000105765 0
0.199464 -0.000279313 0
0.299264 -0.000496207 0
0.399095 -0.000748496 0
0.498953 -0.00103049 0
0.598835 -0.00133737 0
0.69874 -0.00166548 0
0.798664 -0.00201449 0
0.898601 -0.00239341 0
0.0332224 -2.27813e-05 0
0.0664564 -5.95428e-05 0
0.13295 -0.000158129 0
0.166204 -0.000216133 0
0.232727 -0.000347245 0
0.265994 -0.000419644 0
0.332538 -0.00057667 0
0.365815 -0.000660838 0
0.432378 -0.000839447 0
0.465664 -0.000933506 0
0.532244 -0.00113023 0
0.565538 -0.00123257 0
0.632135 -0.00144449 0
0.665436 -0.00155387 0
0.732046 -0.00177932 0
0.765354 -0.00189557 0
0.831975 -0.00213648 0
0.865287 -0.00226241 0
0.931915 -0.00253174 0
0.965234 -0.00267929 0
0.998972 0.0971854 0
0.999291 0.197243 0
0.999556 0.297298 0
0.999772 0.397335 0
0.999989 0.497328 0
1.00021 0.597306 0
1.00044 0.697262 0
1.00071 0.797199 0
1.00104 0.897121 0
0.998711 0.0304952 0
0.998847 0.063839 0
0.999086 0.130543 0
0.999191 0.163896 0
0.999384 0.230601 0
0.999471 0.263952 0
0.999636 0.330659 0
0.999704 0.364011 0
0.999846 0.430671 0
0.999917 0.464003 0
1.00006 0.530661 0
1.00013 0.563987 0
1.00028 0.630632 0
1.00036 0.663951 0
1.00053 0.730581 0
1.00061 0.763893 0
1.00081 0.830513 0
1.00092 0.86382 0
1.00117 0.930427 0
1.00132 0.963725 0
0.901442 0.997571 0
0.801365 0.997969 0
0.701279 0.998328 0
0.601177 0.998662 0
0.501055 0.998971 0
0.40091 0.999254 0
0.300738 0.999506 0
0.200537 0.999722 0
0.1003 0.999895 0
0.968168 0.997248 0
0.934805 0.997422 0
0.868083 0.99771 0
0.834724 0.997842 0
0.768004 0.998092 0
0.734642 0.998212 0
0.667914 0.998442 0
0.634547 0.998553 0
0.567806 0.998768 0
0.534432 0.998871 0
0.467676 0.999068 0
0.434294 0.999163 0
0.367522 0.999341 0
0.334132 0.999426 0
0.267341 0.999582 0
0.233941 0.999655 0
0.167129 0.999785 0
0.133717 0.999843 0
0.0668769 0.999941 0
0.0334442 0.999977 0
0 0.9 0
0 0.8 0
0 0.7 0
0 0.6 0
0 0.5 0
0 0.4 0
0 0.3 0
0 0.2 0
0 0.1 0
0 0.966667 0
0 0.933333 0
0 0.866667 0
0 0.833333 0
0 0.766667 0
0 0.733333 0
0 0.666667 0
0 0.633333 0
0 0.566667 0
0 0.533333 0
0 0.466667 0
0 0.433333 0
0 0.366667 0
0 0.333333 0
0 0.266667 0
0 0.233333 0
0 0.166667 0
0 0.133333 0
0 0.0666667 0
0 0.0333333 0
0.499997 0.498963 0
0.707577 0.705444 0
0.29309 0.706658 0
0.706704 0.291163 0
0.292624 0.292371 0
0.49364 0.774897 0
0.224085 0.492807 0
0.775915 0.504919 0
0.50635 0.223038 0
0.830286 0.827356 0
0.170748 0.82927 0
0.828713 0.168382 0
0.170258 0.170275 0
0.641475 0.847394 0
0.151217 0.640506 0
0.359716 0.847534 0
0.848472 0.638606 0
0.848558 0.35711 0
0.151741 0.358999 0
0.35878 0.150491 0
0.640037 0.150355 0
0.567241 0.638917 0
0.364028 0.57135 0
0.640023 0.43154 0
0.4328 0.358999 0
0.437877 0.669112 0
0.666284 0.557138 0
0.338312 0.437777 0
0.558392 0.332614 0
0.467181 0.889225 0
0.109829 0.466319 0
0.890218 0.531219 0
0.532756 0.108712 0
0.740056 0.900526 0
0.0977621 0.738958 0
0.901792 0.258551 0
0.260453 0.0972576 0
0.901101 0.73791 0
0.260165 0.900156 0
0.739339 0.097637 0
0.0993417 0.259577 0
0.604608 0.743928 0
0.254816 0.603716 0
0.745062 0.394054 0
0.395516 0.253976 0
0.385068 0.749812 0
0.750755 0.613448 0
0.24937 0.384311 0
0.614789 0.248089 0
0.901157 0.897695 0
0.100072 0.900014 0
0.8991 0.097487 0
0.0996842 0.0997698 0
0.570975 0.915508 0
0.0832713 0.569977 0
0.916592 0.427518 0
0.429184 0.0824185 0
0.794436 0.720379 0
0.277949 0.793502 0
0.721728 0.204308 0
0.205869 0.277315 0
0.728472 0.799495 0
0.198916 0.727508 0
0.800759 0.270189 0
0.27187 0.198299 0
0.486188 0.588728 0
0.580235 0.539895 0
0.409088 0.496421 0
0.544937 0.420035 0
0.652231 0.640986 0
0.353789 0.654526 0
0.642196 0.346567 0
0.346268 0.353916 0
0.65099 0.932088 0
0.0664494 0.649896 0
0.93326 0.347562 0
0.349359 0.065791 0
0.928081 0.640462 0
0.641945 0.0707459 0
0.357741 0.927144 0
0.0721805 0.356987 0
0.821186 0.917922 0
0.0800852 0.820016 0
0.919261 0.177442 0
0.179535 0.07973 0
0.920798 0.81761 0
0.819035 0.0778837 0
0.180263 0.919789 0
0.0798578 0.179812 0
0.515301 0.695502 0
0.308768 0.517045 0
0.706821 0.471914 0
0.473265 0.292162 0
0.555574 0.834196 0
0.164641 0.554673 0
0.835269 0.442964 0
0.444523 0.163733 0
0.428178 0.816348 0
0.182778 0.427393 0
0.817315 0.570269 0
0.571708 0.181577 0
0.452809 0.437143 0
0.965679 0.0972942 0
0.932388 0.0973938 0
0.932267 0.0640558 0
0.965421 0.030614 0
0.965555 0.0639521 0
0.0997031 0.0331868 0
0.0996969 0.0664786 0
0.0664351 0.0665236 0
0.033203 0.0332693 0
0.0664507 0.0332326 0
0.90134 0.964278 0
0.901244 0.930985 0
0.934583 0.930838 0
0.968028 0.963959 0
0.934687 0.964129 0
0.0333588 0.900013 0
0.0667163 0.900018 0
0.0667359 0.933353 0
0.0333824 0.966684 0
0.033369 0.933349 0
0.89894 0.0641925 0
0.898773 0.0308992 0
0.932095 0.0307612 0
0.0664548 0.0998548 0
0.0332268 0.099932 0
0.0332165 0.0666007 0
0.934453 0.89751 0
0.967747 0.897318 0
0.967877 0.930637 0
0.100141 0.933309 0
0.100216 0.966602 0
0.0668015 0.966648 0
0.445468 0.58294 0
0.404747 0.577148 0
0.37905 0.546374 0
0.39407 0.521398 0
0.434784 0.527192 0
0.460484 0.557961 0
0.419766 0.55217 0
0.413255 0.636526 0
0.388639 0.603939 0
0.470086 0.615523 0
0.453982 0.642318 0
0.429362 0.609734 0
0.620096 0.467659 0
0.600167 0.503777 0
0.568467 0.499942 0
0.556702 0.459988 0
0.576632 0.423872 0
0.608327 0.427707 0
0.588399 0.463824 0
0.648775 0.473406 0
0.657529 0.515272 0
0.6376 0.551392 0
0.608918 0.545644 0
0.628847 0.509525 0
0.474664 0.350209 0
0.516528 0.341413 0
0.553909 0.361754 0
0.549424 0.390894 0
0.507554 0.399693 0
0.470175 0.379348 0
0.512042 0.370553 0
0.514229 0.42574 0
0.483519 0.431443 0
0.446139 0.411095 0
0.439469 0.385047 0
0.476847 0.405395 0
0.185753 0.628247 0
0.220286 0.615984 0
0.236187 0.644981 0
0.217553 0.686245 0
0.183012 0.698508 0
0.167112 0.669507 0
0.201651 0.657247 0
0.62918 0.812905 0
0.616891 0.778417 0
0.645895 0.762454 0
0.687183 0.780977 0
0.699476 0.815463 0
0.670477 0.831429 0
0.658183 0.796942 0
0.371026 0.184987 0
0.383271 0.219482 0
0.354294 0.235423 0
0.313079 0.216864 0
0.300843 0.182366 0
0.329813 0.16643 0
0.342054 0.200927 0
0.814059 0.369425 0
0.77956 0.38174 0
0.763632 0.352767 0
0.782198 0.311478 0
0.816694 0.299162 0
0.832627 0.328136 0
0.798129 0.340452 0
0.267569 0.63803 0
0.280327 0.672344 0
0.261701 0.713612 0
0.23031 0.720562 0
0.248941 0.679297 0
0.638934 0.731102 0
0.673257 0.718274 0
0.714538 0.736794 0
0.721503 0.768145 0
0.680218 0.749625 0
0.361221 0.266778 0
0.326924 0.279577 0
0.285707 0.261014 0
0.278789 0.229656 0
0.320002 0.24822 0
0.732277 0.359757 0
0.719491 0.32546 0
0.738054 0.284173 0
0.769406 0.277181 0
0.750844 0.31847 0
0.456458 0.704374 0
0.475046 0.739636 0
0.457449 0.766539 0
0.421259 0.758177 0
0.402673 0.722912 0
0.420276 0.696012 0
0.438859 0.731276 0
0.702829 0.539733 0
0.739373 0.522326 0
0.767528 0.541095 0
0.759141 0.577272 0
0.722597 0.594679 0
0.694439 0.575909 0
0.730984 0.558503 0
0.300241 0.456126 0
0.262165 0.474469 0
0.232516 0.456641 0
0.240944 0.420476 0
0.279014 0.402136 0
0.308661 0.419958 0
0.270591 0.438303 0
0.541044 0.296089 0
0.523697 0.259564 0
0.542494 0.231392 0
0.57864 0.239742 0
0.595994 0.276265 0
0.577195 0.30444 0
0.559844 0.267916 0
0.783327 0.621835 0
0.8159 0.630221 0
0.830458 0.665863 0
0.812446 0.69312 0
0.779871 0.684737 0
0.765311 0.649093 0
0.797885 0.657478 0
0.376616 0.782386 0
0.368166 0.81496 0
0.332457 0.829526 0
0.305201 0.811516 0
0.31366 0.778943 0
0.349367 0.764379 0
0.340911 0.796953 0
0.62321 0.215511 0
0.631626 0.182933 0
0.667265 0.16834 0
0.694495 0.186325 0
0.686082 0.218904 0
0.650436 0.233498 0
0.658853 0.200919 0
0.216825 0.375878 0
0.184282 0.367441 0
0.169788 0.331772 0
0.187831 0.304545 0
0.220367 0.312981 0
0.234867 0.348646 0
0.202326 0.340212 0
0.369813 0.411521 0
0.401309 0.385262 0
0.414643 0.437359 0
0.376477 0.43757 0
0.407976 0.41131 0
0.423 0.962579 0
0.445091 0.925903 0
0.478465 0.925808 0
0.489756 0.96239 0
0.456379 0.962486 0
0.0366031 0.422112 0
0.0732127 0.444219 0
0.0732223 0.477552 0
0.0366127 0.488779 0
0.0366079 0.455445 0
0.963542 0.575279 0
0.92688 0.553249 0
0.926808 0.51992 0
0.963399 0.508624 0
0.96347 0.541952 0
0.576817 0.0353469 0
0.554791 0.0720301 0
0.521492 0.0721316 0
0.510224 0.0355507 0
0.543519 0.0354501 0
0.976165 0.61169 0
0.952123 0.626075 0
0.915458 0.60405 0
0.902837 0.567636 0
0.9395 0.589663 0
0.613206 0.0226909 0
0.627576 0.0467186 0
0.605549 0.0834041 0
0.569152 0.0960595 0
0.591183 0.0593758 0
0.386515 0.975218 0
0.372126 0.951181 0
0.394226 0.914509 0
0.430706 0.901869 0
0.408611 0.938544 0
0.0240629 0.385665 0
0.048123 0.371327 0
0.0847266 0.393431 0
0.097276 0.429875 0
0.0606662 0.407773 0
0.463684 0.67791 0
0.489492 0.686707 0
0.50808 0.721967 0
0.50086 0.748432 0
0.482269 0.713172 0
0.328465 0.4642 0
0.318617 0.490623 0
0.280539 0.508969 0
0.252311 0.500889 0
0.290391 0.482547 0
0.662288 0.444998 0
0.684554 0.458457 0
0.693309 0.500322 0
0.679797 0.52873 0
0.671042 0.486864 0
0.729852 0.482916 0
0.752883 0.493918 0
0.716341 0.511325 0
0.44629 0.336721 0
0.459779 0.314442 0
0.501638 0.305648 0
0.530014 0.319132 0
0.488152 0.327929 0
0.484296 0.269121 0
0.495324 0.24608 0
0.512669 0.282606 0
0.721969 0.674778 0
0.736361 0.644113 0
0.765484 0.715402 0
0.736531 0.710424 0
0.75092 0.679758 0
0.323746 0.721046 0
0.354406 0.73543 0
0.282995 0.764554 0
0.288042 0.735606 0
0.318703 0.749994 0
0.676063 0.276807 0
0.645425 0.262449 0
0.716723 0.23326 0
0.711715 0.262211 0
0.681074 0.247855 0
0.27821 0.323018 0
0.263792 0.353665 0
0.234786 0.282337 0
0.263704 0.287356 0
0.249288 0.318001 0
0.409847 0.664252 0
0.381818 0.659391 0
0.357201 0.626801 0
0.360615 0.599075 0
0.385228 0.631665 0
0.340965 0.409823 0
0.343617 0.38187 0
0.375111 0.355613 0
0.403955 0.357307 0
0.372462 0.383567 0
0.385493 0.476875 0
0.361901 0.457327 0
0.438237 0.456903 0
0.423663 0.476662 0
0.400069 0.457117 0
0.495394 0.528884 0
0.490791 0.558806 0
0.439391 0.497271 0
0.469694 0.498118 0
0.465089 0.52804 0
[...]
CELL_DATA 242
POINT_DATA 1150
VECTORS Y Float64
0 0 0.0
0.998558 -0.00283769 0.0
1.00152 0.997022 0.0
0 1 0.0
0.0996998 -0.000105765 0.0
0.199464 -0.000279313 0.0
0.299264 -0.000496207 0.0
0.399095 -0.000748496 0.0
0.498953 -0.00103049 0.0
0.598835 -0.00133737 0.0
0.69874 -0.00166548 0.0
0.798664 -0.00201449 0.0
0.898601 -0.00239341 0.0
0.0332224 -2.27813e-05 0.0
0.0664564 -5.95428e-05 0.0
0.13295 -0.000158129 0.0
0.166204 -0.000216133 0.0
0.232727 -0.000347245 0.0
0.265994 -0.000419644 0.0
0.332538 -0.00057667 0.0
0.365815 -0.000660838 0.0
0.432378 -0.000839447 0.0
0.465664 -0.000933506 0.0
0.532244 -0.00113023 0.0
0.565538 -0.00123257 0.0
0.632135 -0.00144449 0.0
0.665436 -0.00155387 0.0
0.732046 -0.00177932 0.0
0.765354 -0.00189557 0.0
0.831975 -0.00213648 0.0
0.865287 -0.00226241 0.0
0.931915 -0.00253174 0.0
0.965234 -0.00267929 0.0
0.998972 0.0971854 0.0
0.999291 0.197243 0.0
0.999556 0.297298 0.0
0.999772 0.397335 0.0
0.999989 0.497328 0.0
1.00021 0.597306 0.0
1.00044 0.697262 0.0
1.00071 0.797199 0.0
1.00104 0.897121 0.0
0.998711 0.0304952 0.0
0.998847 0.063839 0.0
0.999086 0.130543 0.0
0.999191 0.163896 0.0
0.999384 0.230601 0.0
0.999471 0.263952 0.0
0.999636 0.330659 0.0
0.999704 0.364011 0.0
0.999846 0.430671 0.0
0.999917 0.464003 0.0
1.00006 0.530661 0.0
1.00013 0.563987 0.0
1.00028 0.630632 0.0
1.00036 0.663951 0.0
1.00053 0.730581 0.0
1.00061 0.763893 0.0
1.00081 0.830513 0.0
1.00092 0.86382 0.0
1.00117 0.930427 0.0
1.00132 0.963725 0.0
0.901442 0.997571 0.0
0.801365 0.997969 0.0
0.701279 0.998328 0.0
0.601177 0.998662 0.0
0.501055 0.998971 0.0
0.40091 0.999254 0.0
0.300738 0.999506 0.0
0.200537 0.999722 0.0
0.1003 0.999895 0.0
0.968168 0.997248 0.0
0.934805 0.997422 0.0
0.868083 0.99771 0.0
0.834724 0.997842 0.0
0.768004 0.998092 0.0
0.734642 0.998212 0.0
0.667914 0.998442 0.0
0.634547 0.998553 0.0
0.567806 0.998768 0.0
0.534432 0.998871 0.0
0.467676 0.999068 0.0
0.434294 0.999163 0.0
0.367522 0.999341 0.0
0.334132 0.999426 0.0
0.267341 0.999582 0.0
0.233941 0.999655 0.0
0.167129 0.999785 0.0
0.133717 0.999843 0.0
0.0668769 0.999941 0.0
0.0334442 0.999977 0.0
0 0.9 0.0
0 0.8 0.0
0 0.7 0.0
0 0.6 0.0
0 0.5 0.0
0 0.4 0.0
0 0.3 0.0
0 0.2 0.0
0 0.1 0.0
0 0.966667 0.0
0 0.933333 0.0
0 0.866667 0.0
0 0.833333 0.0
0 0.766667 0.0
0 0.733333 0.0
0 0.666667 0.0
0 0.633333 0.0
0 0.566667 0.0
0 0.533333 0.0
0 0.466667 0.0
0 0.433333 0.0
0 0.366667 0.0
0 0.333333 0.0
0 0.266667 0.0
0 0.233333 0.0
0 0.166667 0.0
0 0.133333 0.0
0 0.0666667 0.0
0 0.0333333 0.0
0.499997 0.498963 0.0
0.707577 0.705444 0.0
0.29309 0.706658 0.0
0.706704 0.291163 0.0
0.292624 0.292371 0.0
0.49364 0.774897 0.0
0.224085 0.492807 0.0
0.775915 0.504919 0.0
0.50635 0.223038 0.0
0.830286 0.827356 0.0
0.170748 0.82927 0.0
0.828713 0.168382 0.0
0.170258 0.170275 0.0
0.641475 0.847394 0.0
0.151217 0.640506 0.0
0.359716 0.847534 0.0
0.848472 0.638606 0.0
0.848558 0.35711 0.0
0.151741 0.358999 0.0
0.35878 0.150491 0.0
0.640037 0.150355 0.0
0.567241 0.638917 0.0
0.364028 0.57135 0.0
0.640023 0.43154 0.0
0.4328 0.358999 0.0
0.437877 0.669112 0.0
0.666284 0.557138 0.0
0.338312 0.437777 0.0
0.558392 0.332614 0.0
0.467181 0.889225 0.0
0.109829 0.466319 0.0
0.890218 0.531219 0.0
0.532756 0.108712 0.0
0.740056 0.900526 0.0
0.0977621 0.738958 0.0
0.901792 0.258551 0.0
0.260453 0.0972576 0.0
0.901101 0.73791 0.0
0.260165 0.900156 0.0
0.739339 0.097637 0.0
0.0993417 0.259577 0.0
0.604608 0.743928 0.0
0.254816 0.603716 0.0
0.745062 0.394054 0.0
0.395516 0.253976 0.0
0.385068 0.749812 0.0
0.750755 0.613448 0.0
0.24937 0.384311 0.0
0.614789 0.248089 0.0
0.901157 0.897695 0.0
0.100072 0.900014 0.0
0.8991 0.097487 0.0
0.0996842 0.0997698 0.0
0.570975 0.915508 0.0
0.0832713 0.569977 0.0
0.916592 0.427518 0.0
0.429184 0.0824185 0.0
0.794436 0.720379 0.0
0.277949 0.793502 0.0
0.721728 0.204308 0.0
0.205869 0.277315 0.0
0.728472 0.799495 0.0
0.198916 0.727508 0.0
0.800759 0.270189 0.0
0.27187 0.198299 0.0
0.486188 0.588728 0.0
0.580235 0.539895 0.0
0.409088 0.496421 0.0
0.544937 0.420035 0.0
0.652231 0.640986 0.0
0.353789 0.654526 0.0
0.642196 0.346567 0.0
0.346268 0.353916 0.0
0.65099 0.932088 0.0
0.0664494 0.649896 0.0
0.93326 0.347562 0.0
0.349359 0.065791 0.0
0.928081 0.640462 0.0
0.641945 0.0707459 0.0
0.357741 0.927144 0.0
0.0721805 0.356987 0.0
0.821186 0.917922 0.0
0.0800852 0.820016 0.0
0.919261 0.177442 0.0
0.179535 0.07973 0.0
0.920798 0.81761 0.0
0.819035 0.0778837 0.0
0.180263 0.919789 0.0
0.0798578 0.179812 0.0
0.515301 0.695502 0.0
0.308768 0.517045 0.0
0.706821 0.471914 0.0
0.473265 0.292162 0.0
0.555574 0.834196 0.0
0.164641 0.554673 0.0
0.835269 0.442964 0.0
0.444523 0.163733 0.0
0.428178 0.816348 0.0
0.182778 0.427393 0.0
0.817315 0.570269 0.0
0.571708 0.181577 0.0
0.452809 0.437143 0.0
0.965679 0.0972942 0.0
0.932388 0.0973938 0.0
0.932267 0.0640558 0.0
0.965421 0.030614 0.0
0.965555 0.0639521 0.0
0.0997031 0.0331868 0.0
0.0996969 0.0664786 0.0
0.0664351 0.0665236 0.0
0.033203 0.0332693 0.0
0.0664507 0.0332326 0.0
0.90134 0.964278 0.0
0.901244 0.930985 0.0
0.934583 0.930838 0.0
0.968028 0.963959 0.0
0.934687 0.964129 0.0
0.0333588 0.900013 0.0
0.0667163 0.900018 0.0
0.0667359 0.933353 0.0
0.0333824 0.966684 0.0
0.033369 0.933349 0.0
0.89894 0.0641925 0.0
0.898773 0.0308992 0.0
0.932095 0.0307612 0.0
0.0664548 0.0998548 0.0
0.0332268 0.099932 0.0
0.0332165 0.0666007 0.0
0.934453 0.89751 0.0
0.967747 0.897318 0.0
0.967877 0.930637 0.0
0.100141 0.933309 0.0
0.100216 0.966602 0.0
0.0668015 0.966648 0.0
0.445468 0.58294 0.0
0.404747 0.577148 0.0
0.37905 0.546374 0.0
0.39407 0.521398 0.0
0.434784 0.527192 0.0
0.460484 0.557961 0.0
0.419766 0.55217 0.0
0.413255 0.636526 0.0
0.388639 0.603939 0.0
0.470086 0.615523 0.0
0.453982 0.642318 0.0
0.429362 0.609734 0.0
0.620096 0.467659 0.0
0.600167 0.503777 0.0
0.568467 0.499942 0.0
0.556702 0.459988 0.0
0.576632 0.423872 0.0
0.608327 0.427707 0.0
0.588399 0.463824 0.0
0.648775 0.473406 0.0
0.657529 0.515272 0.0
0.6376 0.551392 0.0
0.608918 0.545644 0.0
0.628847 0.509525 0.0
0.474664 0.350209 0.0
0.516528 0.341413 0.0
0.553909 0.361754 0.0
0.549424 0.390894 0.0
0.507554 0.399693 0.0
0.470175 0.379348 0.0
0.512042 0.370553 0.0
0.514229 0.42574 0.0
0.483519 0.431443 0.0
0.446139 0.411095 0.0
0.439469 0.385047 0.0
0.476847 0.405395 0.0
0.185753 0.628247 0.0
0.220286 0.615984 0.0
0.236187 0.644981 0.0
0.217553 0.686245 0.0
0.183012 0.698508 0.0
0.167112 0.669507 0.0
0.201651 0.657247 0.0
0.62918 0.812905 0.0
0.616891 0.778417 0.0
0.645895 0.762454 0.0
0.687183 0.780977 0.0
0.699476 0.815463 0.0
0.670477 0.831429 0.0
0.658183 0.796942 0.0
0.371026 0.184987 0.0
0.383271 0.219482 0.0
0.354294 0.235423 0.0
0.313079 0.216864 0.0
0.300843 0.182366 0.0
0.329813 0.16643 0.0
0.342054 0.200927 0.0
0.814059 0.369425 0.0
0.77956 0.38174 0.0
0.763632 0.352767 0.0
0.782198 0.311478 0.0
0.816694 0.299162 0.0
0.832627 0.328136 0.0
0.798129 0.340452 0.0
0.267569 0.63803 0.0
0.280327 0.672344 0.0
0.261701 0.713612 0.0
0.23031 0.720562 0.0
0.248941 0.679297 0.0
0.638934 0.731102 0.0
0.673257 0.718274 0.0
0.714538 0.736794 0.0
0.721503 0.768145 0.0
0.680218 0.749625 0.0
0.361221 0.266778 0.0
0.326924 0.279577 0.0
0.285707 0.261014 0.0
0.278789 0.229656 0.0
0.320002 0.24822 0.0
0.732277 0.359757 0.0
0.719491 0.32546 0.0
0.738054 0.284173 0.0
0.769406 0.277181 0.0
0.750844 0.31847 0.0
0.456458 0.704374 0.0
0.475046 0.739636 0.0
0.457449 0.766539 0.0
0.421259 0.758177 0.0
0.402673 0.722912 0.0
0.420276 0.696012 0.0
0.438859 0.731276 0.0
0.702829 0.539733 0.0
0.739373 0.522326 0.0
0.767528 0.541095 0.0
0.759141 0.577272 0.0
0.722597 0.594679 0.0
0.694439 0.575909 0.0
0.730984 0.558503 0.0
0.300241 0.456126 0.0
0.262165 0.474469 0.0
0.232516 0.456641 0.0
0.240944 0.420476 0.0
0.279014 0.402136 0.0
0.308661 0.419958 0.0
0.270591 0.438303 0.0
0.541044 0.296089 0.0
0.523697 0.259564 0.0
0.542494 0.231392 0.0
0.57864 0.239742 0.0
0.595994 0.276265 0.0
0.577195 0.30444 0.0
0.559844 0.267916 0.0
0.783327 0.621835 0.0
0.8159 0.630221 0.0
0.830458 0.665863 0.0
0.812446 0.69312 0.0
0.779871 0.684737 0.0
0.765311 0.649093 0.0
0.797885 0.657478 0.0
0.376616 0.782386 0.0
0.368166 0.81496 0.0
0.332457 0.829526 0.0
0.305201 0.811516 0.0
0.31366 0.778943 0.0
0.349367 0.764379 0.0
0.340911 0.796953 0.0
0.62321 0.215511 0.0
0.631626 0.182933 0.0
0.667265 0.16834 0.0
0.694495 0.186325 0.0
0.686082 0.218904 0.0
0.650436 0.233498 0.0
0.658853 0.200919 0.0
0.216825 0.375878 0.0
0.184282 0.367441 0.0
0.169788 0.331772 0.0
0.187831 0.304545 0.0
0.220367 0.312981 0.0
0.234867 0.348646 0.0
0.202326 0.340212 0.0
0.369813 0.411521 0.0
0.401309 0.385262 0.0
0.414643 0.437359 0.0
0.376477 0.43757 0.0
0.407976 0.41131 0.0
0.423 0.962579 0.0
0.445091 0.925903 0.0
0.478465 0.925808 0.0
0.489756 0.96239 0.0
0.456379 0.962486 0.0
0.0366031 0.422112 0.0
0.0732127 0.444219 0.0
0.0732223 0.477552 0.0
0.0366127 0.488779 0.0
0.0366079 0.455445 0.0
0.963542 0.575279 0.0
0.92688 0.553249 0.0
0.926808 0.51992 0.0
0.963399 0.508624 0.0
0.96347 0.541952 0.0
0.576817 0.0353469 0.0
0.554791 0.0720301 0.0
0.521492 0.0721316 0.0
0.510224 0.0355507 0.0
0.543519 0.0354501 0.0
0.976165 0.61169 0.0
0.952123 0.626075 0.0
0.915458 0.60405 0.0
0.902837 0.567636 0.0
0.9395 0.589663 0.0
0.613206 0.0226909 0.0
0.627576 0.0467186 0.0
0.605549 0.0834041 0.0
0.569152 0.0960595 0.0
0.591183 0.0593758 0.0
0.386515 0.975218 0.0
0.372126 0.951181 0.0
0.394226 0.914509 0.0
0.430706 0.901869 0.0
0.408611 0.938544 0.0
0.0240629 0.385665 0.0
0.048123 0.371327 0.0
0.0847266 0.393431 0.0
0.097276 0.429875 0.0
0.0606662 0.407773 0.0
0.463684 0.67791 0.0
0.489492 0.686707 0.0
0.50808 0.721967 0.0
0.50086 0.748432 0.0
0.482269 0.713172 0.0
0.328465 0.4642 0.0
0.318617 0.490623 0.0
0.280539 0.508969 0.0
0.252311 0.500889 0.0
0.290391 0.482547 0.0
0.662288 0.444998 0.0
0.684554 0.458457 0.0
0.693309 0.500322 0.0
0.679797 0.52873 0.0
0.671042 0.486864 0.0
0.729852 0.482916 0.0
0.752883 0.493918 0.0
0.716341 0.511325 0.0
0.44629 0.336721 0.0
0.459779 0.314442 0.0
0.501638 0.305648 0.0
0.530014 0.319132 0.0
0.488152 0.327929 0.0
0.484296 0.269121 0.0
0.495324 0.24608 0.0
0.512669 0.282606 0.0
0.721969 0.674778 0.0
0.736361 0.644113 0.0
0.765484 0.715402 0.0
0.736531 0.710424 0.0
0.75092 0.679758 0.0
0.323746 0.721046 0.0
0.354406 0.73543 0.0
0.282995 0.764554 0.0
0.288042 0.735606 0.0
0.318703 0.749994 0.0
0.676063 0.276807 0.0
0.645425 0.262449 0.0
0.716723 0.23326 0.0
0.711715 0.262211 0.0
0.681074 0.247855 0.0
0.27821 0.323018 0.0
0.263792 0.353665 0.0
0.234786 0.282337 0.0
0.263704 0.287356 0.0
0.249288 0.318001 0.0
0.409847 0.664252 0.0
0.381818 0.659391 0.0
0.357201 0.626801 0.0
0.360615 0.599075 0.0
0.385228 0.631665 0.0
0.340965 0.409823 0.0
0.343617 0.38187 0.0
0.375111 0.355613 0.0
0.403955 0.357307 0.0
0.372462 0.383567 0.0
0.385493 0.476875 0.0
0.361901 0.457327 0.0
0.438237 0.456903 0.0
0.423663 0.476662 0.0
0.400069 0.457117 0.0
0.495394 0.528884 0.0
0.490791 0.558806 0.0
0.439391 0.497271 0.0
0.469694 0.498118 0.0
0.465089 0.52804 0.0
0.553488 0.526253 0.0
0.526742 0.512609 0.0
0.514979 0.472654 0.0
0.529959 0.446344 0.0
0.541722 0.486299 0.0
0.862386 0.60281 0.0
0.876301 0.567014 0.0
0.901545 0.639842 0.0
0.875009 0.639224 0.0
0.888922 0.603429 0.0
0.604272 0.136477 0.0
0.568512 0.122596 0.0
0.641312 0.0972823 0.0
0.640676 0.123819 0.0
0.604912 0.10994 0.0
0.395536 0.861435 0.0
0.431358 0.875332 0.0
0.358396 0.900608 0.0
0.359055 0.874071 0.0
0.39488 0.887972 0.0
0.137775 0.394773 0.0
0.123804 0.430546 0.0
0.0987003 0.357661 0.0
0.125221 0.358331 0.0
0.11125 0.394104 0.0
0.714204 0.965728 0.0
0.727129 0.933127 0.0
0.760485 0.933008 0.0
0.780921 0.96549 0.0
0.747563 0.96561 0.0
0.0325839 0.712991 0.0
0.0651712 0.725977 0.0
0.0651818 0.759312 0.0
0.0325946 0.779659 0.0
0.0325891 0.746325 0.0
0.966968 0.284381 0.0
0.93438 0.271465 0.0
0.934293 0.238122 0.0
0.966793 0.217687 0.0
0.966883 0.251035 0.0
0.286336 0.0320892 0.0
0.273399 0.0646739 0.0
0.240122 0.0647471 0.0
0.219793 0.0322348 0.0
0.253063 0.0321642 0.0
0.967505 0.777443 0.0
0.934303 0.757679 0.0
0.934214 0.724357 0.0
0.967327 0.710809 0.0
0.967414 0.744127 0.0
0.778896 0.0312038 0.0
0.759121 0.0644209 0.0
0.725808 0.0645367 0.0
0.712275 0.0314359 0.0
0.745584 0.0313211 0.0
0.220414 0.966535 0.0
0.24029 0.933347 0.0
0.27368 0.933274 0.0
0.287205 0.96639 0.0
0.253811 0.966465 0.0
0.0331067 0.219866 0.0
0.0662207 0.239724 0.0
0.0662314 0.273056 0.0
0.0331175 0.28653 0.0
0.0331123 0.253198 0.0
0.501779 0.897989 0.0
0.536377 0.90675 0.0
0.54767 0.94333 0.0
0.524363 0.971151 0.0
0.513067 0.934571 0.0
0.100979 0.500872 0.0
0.092126 0.535424 0.0
0.0555092 0.546654 0.0
0.0277521 0.523329 0.0
0.0643669 0.512103 0.0
0.899009 0.496653 0.0
0.907801 0.462086 0.0
0.94439 0.450789 0.0
0.972189 0.47406 0.0
0.935599 0.485355 0.0
0.498228 0.0999505 0.0
0.463704 0.0911861 0.0
0.452446 0.0546037 0.0
0.475702 0.0267873 0.0
0.486967 0.0633692 0.0
0.866011 0.671709 0.0
0.883554 0.704811 0.0
0.865547 0.732068 0.0
0.829992 0.726225 0.0
0.848001 0.698966 0.0
0.326538 0.865079 0.0
0.293354 0.882619 0.0
0.26609 0.864605 0.0
0.272019 0.829054 0.0
0.299276 0.847068 0.0
0.673139 0.132784 0.0
0.70624 0.115212 0.0
0.733475 0.133194 0.0
0.727604 0.168751 0.0
0.700371 0.150768 0.0
0.13427 0.325859 0.0
0.116804 0.292719 0.0
0.134848 0.265496 0.0
0.170357 0.271408 0.0
0.152316 0.298635 0.0
0.475998 0.851116 0.0
0.484818 0.813007 0.0
0.514282 0.794665 0.0
0.534927 0.814431 0.0
0.526113 0.852541 0.0
0.496649 0.870885 0.0
0.505464 0.832775 0.0
0.147912 0.475154 0.0
0.185997 0.483984 0.0
0.204273 0.51343 0.0
0.184459 0.534053 0.0
0.146366 0.525223 0.0
0.128095 0.495772 0.0
0.166183 0.504604 0.0
0.852117 0.522452 0.0
0.814016 0.513685 0.0
0.7957 0.484267 0.0
0.815485 0.463616 0.0
0.853585 0.472383 0.0
0.871901 0.501802 0.0
0.833801 0.493034 0.0
0.523961 0.146821 0.0
0.515159 0.18493 0.0
0.485739 0.203271 0.0
0.46513 0.183503 0.0
0.473936 0.145395 0.0
0.503347 0.127055 0.0
0.494547 0.165163 0.0
0.592148 0.708925 0.0
0.579692 0.673921 0.0
0.595572 0.639609 0.0
0.623902 0.640298 0.0
0.636356 0.6753 0.0
0.620482 0.709614 0.0
0.608025 0.674611 0.0
0.291223 0.592932 0.0
0.327627 0.582143 0.0
0.320794 0.637594 0.0
0.287803 0.620657 0.0
0.32421 0.609868 0.0
0.710049 0.406551 0.0
0.675036 0.419046 0.0
0.640748 0.403215 0.0
0.641473 0.374891 0.0
0.676483 0.362398 0.0
0.710771 0.378227 0.0
0.67576 0.390722 0.0
0.407944 0.288984 0.0
0.420371 0.323992 0.0
0.362689 0.320604 0.0
0.379105 0.28729 0.0
0.39153 0.322299 0.0
0.800212 0.851748 0.0
0.770136 0.876138 0.0
0.736189 0.866849 0.0
0.732328 0.833172 0.0
0.762411 0.808785 0.0
0.796349 0.818073 0.0
0.76627 0.842462 0.0
0.146411 0.799169 0.0
0.122083 0.769065 0.0
0.131482 0.735147 0.0
0.1652 0.73133 0.0
0.189528 0.761429 0.0
0.180138 0.79535 0.0
0.155806 0.76525 0.0
0.853075 0.198436 0.0
0.877435 0.228493 0.0
0.868113 0.262431 0.0
0.834435 0.26631 0.0
0.810082 0.236254 0.0
0.819401 0.202318 0.0
0.843758 0.232374 0.0
0.200331 0.14594 0.0
0.230396 0.121601 0.0
0.264262 0.130938 0.0
0.268068 0.164619 0.0
0.237995 0.188962 0.0
0.204124 0.179621 0.0
0.234197 0.155282 0.0
0.670678 0.662473 0.0
0.689127 0.683958 0.0
0.654806 0.696787 0.0
0.333558 0.671905 0.0
0.313325 0.689282 0.0
0.300562 0.65497 0.0
0.6637 0.3281 0.0
0.685202 0.309632 0.0
0.697988 0.343929 0.0
0.328385 0.333402 0.0
0.310503 0.312887 0.0
0.344806 0.300091 0.0
0.571571 0.60591 0.0
0.575903 0.572902 0.0
0.60423 0.573593 0.0
0.628229 0.60729 0.0
0.5999 0.606601 0.0
0.661599 0.585087 0.0
0.656915 0.613036 0.0
0.632914 0.579341 0.0
0.57736 0.395548 0.0
0.609779 0.371058 0.0
0.609054 0.399382 0.0
0.586325 0.337266 0.0
0.61426 0.341917 0.0
0.581843 0.366407 0.0
0.581038 0.943226 0.0
0.591105 0.970944 0.0
0.557735 0.971049 0.0
0.0555165 0.579988 0.0
0.0277595 0.589996 0.0
0.0277557 0.556662 0.0
0.944319 0.417455 0.0
0.972046 0.407395 0.0
0.972118 0.440728 0.0
0.419156 0.0546965 0.0
0.409126 0.0269742 0.0
0.442413 0.0268823 0.0
0.471822 0.788715 0.0
0.450001 0.802532 0.0
0.413805 0.79417 0.0
0.399435 0.771991 0.0
0.435628 0.780355 0.0
0.789714 0.526703 0.0
0.803514 0.548486 0.0
0.795129 0.584661 0.0
0.772942 0.599055 0.0
0.781328 0.562879 0.0
0.210314 0.471003 0.0
0.196545 0.449198 0.0
0.204978 0.413034 0.0
0.227175 0.398674 0.0
0.218746 0.434838 0.0
0.528138 0.209219 0.0
0.549924 0.195399 0.0
0.586068 0.203748 0.0
0.600429 0.225919 0.0
0.564282 0.217571 0.0
0.7671 0.906327 0.0
0.794143 0.912125 0.0
0.814578 0.944604 0.0
0.807971 0.971287 0.0
0.787531 0.938808 0.0
0.0918707 0.765978 0.0
0.0859784 0.792997 0.0
0.0533886 0.813348 0.0
0.0266935 0.806676 0.0
0.0592858 0.78633 0.0
0.907619 0.231516 0.0
0.913442 0.204479 0.0
0.945937 0.184043 0.0
0.972614 0.190644 0.0
0.940117 0.211083 0.0
0.233477 0.091418 0.0
0.206504 0.0855756 0.0
0.186184 0.0530607 0.0
0.192827 0.0263909 0.0
0.213151 0.0589054 0.0
0.974073 0.804002 0.0
0.947435 0.810805 0.0
0.914229 0.791044 0.0
0.907663 0.764477 0.0
0.940867 0.784243 0.0
0.805456 0.0246184 0.0
0.812246 0.0512511 0.0
0.792469 0.0844699 0.0
0.765904 0.0910543 0.0
0.785683 0.0578369 0.0
0.193773 0.973078 0.0
0.187015 0.946434 0.0
0.2069 0.913247 0.0
0.233534 0.906703 0.0
0.213654 0.939892 0.0
0.0266208 0.193274 0.0
0.0532401 0.186545 0.0
0.0863514 0.2064 0.0
0.092846 0.232989 0.0
0.0597297 0.213135 0.0
0.115585 0.706142 0.0
0.133403 0.673324 0.0
0.149299 0.702328 0.0
0.707194 0.882818 0.0
0.674333 0.865107 0.0
0.703332 0.84914 0.0
0.293223 0.115006 0.0
0.325999 0.13275 0.0
0.297035 0.148686 0.0
0.884051 0.291407 0.0
0.866306 0.324259 0.0
0.850372 0.295284 0.0
0.877493 0.767722 0.0
0.853888 0.797538 0.0
0.818329 0.791698 0.0
0.806379 0.756039 0.0
0.841937 0.761882 0.0
0.230352 0.876532 0.0
0.200546 0.852903 0.0
0.206487 0.817353 0.0
0.24222 0.80543 0.0
0.236285 0.840981 0.0
0.769128 0.12122 0.0
0.79892 0.144801 0.0
0.793051 0.18036 0.0
0.757389 0.192335 0.0
0.763262 0.156778 0.0
0.122988 0.229812 0.0
0.146627 0.200045 0.0
0.182127 0.205955 0.0
0.193997 0.241636 0.0
0.158491 0.235727 0.0
0.945836 0.150699 0.0
0.972407 0.123949 0.0
0.972514 0.157297 0.0
0.847929 0.944475 0.0
0.87468 0.971025 0.0
0.841326 0.971159 0.0
0.152917 0.0531218 0.0
0.126306 0.0265099 0.0
0.159564 0.0264531 0.0
0.0533994 0.846683 0.0
0.0267048 0.873345 0.0
0.0266989 0.84001 0.0
0.974286 0.87063 0.0
0.94754 0.844124 0.0
0.974176 0.837317 0.0
0.872086 0.0243689 0.0
0.845564 0.0511277 0.0
0.83877 0.0244957 0.0
0.12696 0.973197 0.0
0.153615 0.946494 0.0
0.160369 0.97314 0.0
0.0266096 0.12661 0.0
0.0532294 0.153214 0.0
0.0266155 0.159942 0.0
0.560704 0.8613 0.0
0.565838 0.888404 0.0
0.531243 0.879646 0.0
0.137519 0.559778 0.0
0.110396 0.564879 0.0
0.119247 0.530325 0.0
0.862377 0.437814 0.0
0.889485 0.432665 0.0
0.880693 0.467234 0.0
0.439412 0.136629 0.0
0.434299 0.109524 0.0
0.468821 0.118291 0.0
0.912545 0.150789 0.0
0.905824 0.124137 0.0
0.939115 0.124045 0.0
0.152919 0.0864137 0.0
0.126302 0.0930938 0.0
0.126307 0.0598022 0.0
0.847846 0.911183 0.0
0.874503 0.90444 0.0
0.874588 0.937733 0.0
0.0867439 0.846682 0.0
0.0934061 0.873349 0.0
0.060056 0.873351 0.0
0.907699 0.870997 0.0
0.914246 0.844302 0.0
0.940993 0.870816 0.0
0.872409 0.090955 0.0
0.845721 0.0844205 0.0
0.872251 0.0576616 0.0
0.126802 0.90661 0.0
0.153532 0.913201 0.0
0.126878 0.939904 0.0
0.0930793 0.126451 0.0
0.0864703 0.153131 0.0
0.0598439 0.126534 0.0
0.75046 0.773123 0.0
0.772447 0.746751 0.0
0.784395 0.782412 0.0
0.225255 0.749509 0.0
0.251599 0.771507 0.0
0.215871 0.783431 0.0
0.774414 0.248229 0.0
0.748071 0.226268 0.0
0.783735 0.214294 0.0
0.249876 0.22464 0.0
0.227875 0.250979 0.0
0.215999 0.2153 0.0
0.574837 0.727788 0.0
0.545068 0.711646 0.0
0.532615 0.676641 0.0
0.549929 0.657779 0.0
0.562381 0.692784 0.0
0.272803 0.574827 0.0
0.290787 0.545936 0.0
0.327186 0.535148 0.0
0.345606 0.553249 0.0
0.309206 0.56404 0.0
0.732316 0.420008 0.0
0.719569 0.445961 0.0
0.697303 0.432504 0.0
0.42143 0.266707 0.0
0.447346 0.279435 0.0
0.43386 0.301714 0.0
0.454176 0.864933 0.0
0.441175 0.840641 0.0
0.462997 0.826824 0.0
0.134148 0.453346 0.0
0.158464 0.440371 0.0
0.17223 0.462177 0.0
0.382539 0.83714 0.0
0.405359 0.826745 0.0