# vtk DataFile Version 2.0
FEM, Created by Wutzow
ASCII
DATASET UNSTRUCTURED_GRID
POINTS 25 Float64
0 0 0
0.419183 0.0432005 0
0.580817 0.0432005 0
1 0 0
0.178127 0.14675 0
0.5 0.232225 0
0.821873 0.14675 0
0 0.333333 0
0.328748 0.350346 0
0.671252 0.350346 0
1 0.333333 0
0.168508 0.507208 0
0.5 0.540356 0
0.831492 0.507208 0
0 0.666667 0
0.336704 0.647461 0
0.663296 0.647461 0
1 0.666667 0
0.138125 0.812515 0
0.5 0.817397 0
0.861875 0.812515 0
0 1 0
0.295837 0.949035 0
0.704163 0.949035 0
1 1 0

CELLS 4 44
10 0 3 12 1 2 6 9 8 4 5
10 3 24 12 10 17 20 16 9 6 13
10 24 21 12 23 22 18 15 16 20 19
10 21 0 12 14 7 4 8 15 18 11

CELL_TYPES 4
69
69
69
69

CELL_DATA 4
POINT_DATA 25
VECTORS Y Float64
0 0 0.0
0.419183 0.0432005 0.0
0.580817 0.0432005 0.0
1 0 0.0
0.178127 0.14675 0.0
0.5 0.232225 0.0
0.821873 0.14675 0.0
0 0.333333 0.0
0.328748 0.350346 0.0
0.671252 0.350346 0.0
1 0.333333 0.0
0.168508 0.507208 0.0
0.5 0.540356 0.0
0.831492 0.507208 0.0
0 0.666667 0.0
0.336704 0.647461 0.0
0.663296 0.647461 0.0
1 0.666667 0.0
0.138125 0.812515 0.0
0.5 0.817397 0.0
0.861875 0.812515 0.0
0 1 0.0
0.295837 0.949035 0.0
0.704163 0.949035 0.0
1 1 0.0

CELL_DATA 4
POINT_DATA 25
VECTORS U Float64
0 0 0.0
0.0858499 0.0432005 0.0
-0.0858499 0.0432005 0.0
0 0 0.0
0.01146 -0.0199172 0.0
6.66134e-15 0.0655579 0.0
-0.01146 -0.0199172 0.0
0 0 0.0
-0.00458518 0.0170124 0.0
0.00458518 0.0170124 0.0
0 0 0.0
0.00184156 0.00720843 0.0
-1.36557e-14 0.0403561 0.0
-0.00184156 0.00720843 0.0
0 0 0.0
0.00337073 -0.0192056 0.0
-0.00337073 -0.0192056 0.0
0 0 0.0
-0.0285415 -0.0208183 0.0
6.66134e-16 -0.0159364 0.0
0.0285415 -0.0208183 0.0
0 0 0.0
-0.0374964 -0.0509647 0.0
0.0374964 -0.0509647 0.0
0 0 0.0

CELL_DATA 4
POINT_DATA 25
TENSORS E Float64
0.0830474 0.00153219  0.00
0.00153219 -0.040095  0.00
0.00 0.00  0.00

0.248133 -0.0413548  0.00
-0.0413548 -0.124233  0.00
0.00 0.00  0.00

0.248133 0.0413548  0.00
0.0413548 -0.124233  0.00
0.00 0.00  0.00

0.0830474 -0.00153219  0.00
-0.00153219 -0.040095  0.00
0.00 0.00  0.00

0.179196 -0.0394258  0.00
-0.0394258 -0.0100129  0.00
0.00 0.00  0.00

-0.242552 -3.94389e-15  0.00
-3.94389e-15 -0.0087619  0.00
0.00 0.00  0.00

0.179196 0.0394258  0.00
0.0394258 -0.0100129  0.00
0.00 0.00  0.00

-0.0615328 0.00196187  0.00
0.00196187 0.104745  0.00
0.00 0.00  0.00

0.200606 0.0120762  0.00
0.0120762 -0.121889  0.00
0.00 0.00  0.00

0.200606 -0.0120762  0.00
-0.0120762 -0.121889  0.00
0.00 0.00  0.00

-0.0615328 -0.00196187  0.00
-0.00196187 0.104745  0.00
0.00 0.00  0.00

0.0155543 -0.0235866  0.00
-0.0235866 0.00111391  0.00
0.00 0.00  0.00

0.00462105 -2.53096e-15  0.00
-2.53096e-15 -0.078313  0.00
0.00 0.00  0.00

0.0155543 0.0235866  0.00
0.0235866 0.00111391  0.00
0.00 0.00  0.00

-0.0734423 -0.0293934  0.00
-0.0293934 0.0355098  0.00
0.00 0.00  0.00

-0.198258 0.0180151  0.00
0.0180151 -0.112263  0.00
0.00 0.00  0.00

-0.198258 -0.0180151  0.00
-0.0180151 -0.112263  0.00
0.00 0.00  0.00

-0.0734423 0.0293934  0.00
0.0293934 0.0355098  0.00
0.00 0.00  0.00

-0.167189 -0.060212  0.00
-0.060212 -0.154602  0.00
0.00 0.00  0.00

0.224505 3.64847e-14  0.00
3.64847e-14 -0.058637  0.00
0.00 0.00  0.00

-0.167189 0.060212  0.00
0.060212 -0.154602  0.00
0.00 0.00  0.00

-0.0799768 0.00582142  0.00
0.00582142 -0.0493783  0.00
0.00 0.00  0.00

-0.103298 -0.0367248  0.00
-0.0367248 -0.196089  0.00
0.00 0.00  0.00

-0.103298 0.0367248  0.00
0.0367248 -0.196089  0.00
0.00 0.00  0.00

-0.0799768 -0.00582142  0.00
-0.00582142 -0.0493783  0.00
0.00 0.00  0.00


CELL_DATA 4
POINT_DATA 25
TENSORS S Float64
0.0830474 0.00153219  0.00
0.00153219 -0.040095  0.00
0.00 0.00  0.00

0.248133 -0.0413548  0.00
-0.0413548 -0.124233  0.00
0.00 0.00  0.00

0.248133 0.0413548  0.00
0.0413548 -0.124233  0.00
0.00 0.00  0.00

0.0830474 -0.00153219  0.00
-0.00153219 -0.040095  0.00
0.00 0.00  0.00

0.179196 -0.0394258  0.00
-0.0394258 -0.0100129  0.00
0.00 0.00  0.00

-0.242552 -3.94389e-15  0.00
-3.94389e-15 -0.0087619  0.00
0.00 0.00  0.00

0.179196 0.0394258  0.00
0.0394258 -0.0100129  0.00
0.00 0.00  0.00

-0.0615328 0.00196187  0.00
0.00196187 0.104745  0.00
0.00 0.00  0.00

0.200606 0.0120762  0.00
0.0120762 -0.121889  0.00
0.00 0.00  0.00

0.200606 -0.0120762  0.00
-0.0120762 -0.121889  0.00
0.00 0.00  0.00

-0.0615328 -0.00196187  0.00
-0.00196187 0.104745  0.00
0.00 0.00  0.00

0.0155543 -0.0235866  0.00
-0.0235866 0.00111391  0.00
0.00 0.00  0.00

0.00462105 -2.53096e-15  0.00
-2.53096e-15 -0.078313  0.00
0.00 0.00  0.00

0.0155543 0.0235866  0.00
0.0235866 0.00111391  0.00
0.00 0.00  0.00

-0.0734423 -0.0293934  0.00
-0.0293934 0.0355098  0.00
0.00 0.00  0.00

-0.198258 0.0180151  0.00
0.0180151 -0.112263  0.00
0.00 0.00  0.00

-0.198258 -0.0180151  0.00
-0.0180151 -0.112263  0.00
0.00 0.00  0.00

-0.0734423 0.0293934  0.00
0.0293934 0.0355098  0.00
0.00 0.00  0.00

-0.167189 -0.060212  0.00
-0.060212 -0.154602  0.00
0.00 0.00  0.00

0.224505 3.64847e-14  0.00
3.64847e-14 -0.058637  0.00
0.00 0.00  0.00

-0.167189 0.060212  0.00
0.060212 -0.154602  0.00
0.00 0.00  0.00

-0.0799768 0.00582142  0.00
0.00582142 -0.0493783  0.00
0.00 0.00  0.00

-0.103298 -0.0367248  0.00
-0.0367248 -0.196089  0.00
0.00 0.00  0.00

-0.103298 0.0367248  0.00
0.0367248 -0.196089  0.00
0.00 0.00  0.00

-0.0799768 -0.00582142  0.00
-0.00582142 -0.0493783  0.00
0.00 0.00  0.00


CELL_DATA 4
POINT_DATA 25
SCALARS ue float
LOOKUP_TABLE default
-0.0112359
-0.0243052
-0.0243052
-0.0112359
-0.022332
0.0257485
-0.022332
0.00604694
-0.0191488
-0.0191488
0.00604694
0.00616958
-0.00690592
0.00616958
-0.00910168
-0.00127894
-0.00127894
-0.00910168
0.00777158
0.0200215
0.00777158
0.0033883
0.0114957
0.0114957
0.0033883

