# vtk DataFile Version 2.0
FEM, Created by Wutzow
ASCII
DATASET UNSTRUCTURED_GRID
POINTS 25 Float64
0 0 0
0.421336 0.0330484 0
0.578664 0.0330484 0
1 0 0
0.187496 0.157502 0
0.5 0.229107 0
0.812504 0.157502 0
0 0.333333 0
0.336436 0.348908 0
0.663564 0.348908 0
1 0.333333 0
0.170782 0.515717 0
0.5 0.562821 0
0.829218 0.515717 0
0 0.666667 0
0.346692 0.667426 0
0.653308 0.667426 0
1 0.666667 0
0.129376 0.809354 0
0.5 0.85133 0
0.870624 0.809354 0
0 1 0
0.261792 0.973789 0
0.738208 0.973789 0
1 1 0

CELLS 4 44
10 0 3 12 1 2 6 9 8 4 5
10 3 24 12 10 17 20 16 9 6 13
10 24 21 12 23 22 18 15 16 20 19
10 21 0 12 14 7 4 8 15 18 11

CELL_TYPES 4
69
69
69
69

CELL_DATA 4
POINT_DATA 25
VECTORS Y Float64
0 0 0.0
0.421336 0.0330484 0.0
0.578664 0.0330484 0.0
1 0 0.0
0.187496 0.157502 0.0
0.5 0.229107 0.0
0.812504 0.157502 0.0
0 0.333333 0.0
0.336436 0.348908 0.0
0.663564 0.348908 0.0
1 0.333333 0.0
0.170782 0.515717 0.0
0.5 0.562821 0.0
0.829218 0.515717 0.0
0 0.666667 0.0
0.346692 0.667426 0.0
0.653308 0.667426 0.0
1 0.666667 0.0
0.129376 0.809354 0.0
0.5 0.85133 0.0
0.870624 0.809354 0.0
0 1 0.0
0.261792 0.973789 0.0
0.738208 0.973789 0.0
1 1 0.0

CELL_DATA 4
POINT_DATA 25
VECTORS U Float64
0 0 0.0
0.0880025 0.0330484 0.0
-0.0880025 0.0330484 0.0
0 0 0.0
0.0208294 -0.00916429 0.0
-6.66134e-16 0.0624406 0.0
-0.0208294 -0.00916429 0.0
0 0 0.0
0.00310225 0.0155745 0.0
-0.00310225 0.0155745 0.0
0 0 0.0
0.00411523 0.015717 0.0
-8.71525e-15 0.0628205 0.0
-0.00411523 0.015717 0.0
0 0 0.0
0.0133587 0.000759734 0.0
-0.0133587 0.000759734 0.0
0 0 0.0
-0.0372903 -0.0239791 0.0
-7.77156e-16 0.0179962 0.0
0.0372903 -0.0239791 0.0
0 0 0.0
-0.0715416 -0.0262108 0.0
0.0715416 -0.0262108 0.0
0 0 0.0

CELL_DATA 4
POINT_DATA 25
TENSORS E Float64
-9.14047e-17 -4.18111e-32  0.00
-4.18111e-32 -9.14047e-17  0.00
0.00 0.00  0.00

-2.87026e-17 -2.76061e-32  0.00
-2.76061e-32 -1.35091e-16  0.00
0.00 0.00  0.00

-1.45124e-16 -2.08377e-31  0.00
-2.08377e-31 -2.7321e-16  0.00
0.00 0.00  0.00

-8.5262e-17 1.94905e-31  0.00
1.94905e-31 3.57665e-17  0.00
0.00 0.00  0.00

-2.87612e-16 -4.59493e-32  0.00
-4.59493e-32 -2.87612e-16  0.00
0.00 0.00  0.00

-2.5099e-17 -9.84581e-33  0.00
-9.84581e-33 2.5099e-17  0.00
0.00 0.00  0.00

-1.92108e-16 3.02973e-31  0.00
3.02973e-31 -3.83122e-17  0.00
0.00 0.00  0.00

-1.35091e-16 1.33571e-32  0.00
1.33571e-32 -2.87026e-17  0.00
0.00 0.00  0.00

1.50303e-17 -5.13946e-32  0.00
-5.13946e-32 1.50303e-17  0.00
0.00 0.00  0.00

-1.79038e-16 1.85403e-31  0.00
1.85403e-31 1.74195e-16  0.00
0.00 0.00  0.00

-3.92572e-17 3.41503e-31  0.00
3.41503e-31 2.773e-16  0.00
0.00 0.00  0.00

2.5099e-17 -2.48014e-33  0.00
-2.48014e-33 -2.5099e-17  0.00
0.00 0.00  0.00

-8.56993e-17 1.30816e-31  0.00
1.30816e-31 -8.56993e-17  0.00
0.00 0.00  0.00

2.5099e-17 -3.9458e-32  0.00
-3.9458e-32 -2.5099e-17  0.00
0.00 0.00  0.00

-2.7321e-16 4.6031e-32  0.00
4.6031e-32 -1.45124e-16  0.00
0.00 0.00  0.00

1.74195e-16 -4.46541e-33  0.00
-4.46541e-33 -1.79038e-16  0.00
0.00 0.00  0.00

-1.98725e-17 1.75021e-31  0.00
1.75021e-31 -1.98725e-17  0.00
0.00 0.00  0.00

-1.77377e-16 8.07472e-31  0.00
8.07472e-31 1.60879e-16  0.00
0.00 0.00  0.00

-3.83122e-17 -8.05222e-32  0.00
-8.05222e-32 -1.92108e-16  0.00
0.00 0.00  0.00

-2.5099e-17 -9.84581e-33  0.00
-9.84581e-33 2.5099e-17  0.00
0.00 0.00  0.00

5.71922e-17 4.6899e-31  0.00
4.6899e-31 5.71922e-17  0.00
0.00 0.00  0.00

3.57665e-17 -7.07523e-32  0.00
-7.07523e-32 -8.5262e-17  0.00
0.00 0.00  0.00

2.773e-16 -2.32432e-32  0.00
-2.32432e-32 -3.92572e-17  0.00
0.00 0.00  0.00

1.60879e-16 -3.79407e-31  0.00
-3.79407e-31 -1.77377e-16  0.00
0.00 0.00  0.00

4.19091e-17 1.24573e-31  0.00
1.24573e-31 4.19091e-17  0.00
0.00 0.00  0.00


CELL_DATA 4
POINT_DATA 25
TENSORS S Float64
-9.14047e-17 -4.18111e-32  0.00
-4.18111e-32 -9.14047e-17  0.00
0.00 0.00  0.00

-2.87026e-17 -2.76061e-32  0.00
-2.76061e-32 -1.35091e-16  0.00
0.00 0.00  0.00

-1.45124e-16 -2.08377e-31  0.00
-2.08377e-31 -2.7321e-16  0.00
0.00 0.00  0.00

-8.5262e-17 1.94905e-31  0.00
1.94905e-31 3.57665e-17  0.00
0.00 0.00  0.00

-2.87612e-16 -4.59493e-32  0.00
-4.59493e-32 -2.87612e-16  0.00
0.00 0.00  0.00

-2.5099e-17 -9.84581e-33  0.00
-9.84581e-33 2.5099e-17  0.00
0.00 0.00  0.00

-1.92108e-16 3.02973e-31  0.00
3.02973e-31 -3.83122e-17  0.00
0.00 0.00  0.00

-1.35091e-16 1.33571e-32  0.00
1.33571e-32 -2.87026e-17  0.00
0.00 0.00  0.00

1.50303e-17 -5.13946e-32  0.00
-5.13946e-32 1.50303e-17  0.00
0.00 0.00  0.00

-1.79038e-16 1.85403e-31  0.00
1.85403e-31 1.74195e-16  0.00
0.00 0.00  0.00

-3.92572e-17 3.41503e-31  0.00
3.41503e-31 2.773e-16  0.00
0.00 0.00  0.00

2.5099e-17 -2.48014e-33  0.00
-2.48014e-33 -2.5099e-17  0.00
0.00 0.00  0.00

-8.56993e-17 1.30816e-31  0.00
1.30816e-31 -8.56993e-17  0.00
0.00 0.00  0.00

2.5099e-17 -3.9458e-32  0.00
-3.9458e-32 -2.5099e-17  0.00
0.00 0.00  0.00

-2.7321e-16 4.6031e-32  0.00
4.6031e-32 -1.45124e-16  0.00
0.00 0.00  0.00

1.74195e-16 -4.46541e-33  0.00
-4.46541e-33 -1.79038e-16  0.00
0.00 0.00  0.00

-1.98725e-17 1.75021e-31  0.00
1.75021e-31 -1.98725e-17  0.00
0.00 0.00  0.00

-1.77377e-16 8.07472e-31  0.00
8.07472e-31 1.60879e-16  0.00
0.00 0.00  0.00

-3.83122e-17 -8.05222e-32  0.00
-8.05222e-32 -1.92108e-16  0.00
0.00 0.00  0.00

-2.5099e-17 -9.84581e-33  0.00
-9.84581e-33 2.5099e-17  0.00
0.00 0.00  0.00

5.71922e-17 4.6899e-31  0.00
4.6899e-31 5.71922e-17  0.00
0.00 0.00  0.00

3.57665e-17 -7.07523e-32  0.00
-7.07523e-32 -8.5262e-17  0.00
0.00 0.00  0.00

2.773e-16 -2.32432e-32  0.00
-2.32432e-32 -3.92572e-17  0.00
0.00 0.00  0.00

1.60879e-16 -3.79407e-31  0.00
-3.79407e-31 -1.77377e-16  0.00
0.00 0.00  0.00

4.19091e-17 1.24573e-31  0.00
1.24573e-31 4.19091e-17  0.00
0.00 0.00  0.00


CELL_DATA 4
POINT_DATA 25
SCALARS ue float
LOOKUP_TABLE default
4.07855e-32
3.4348e-32
5.20913e-32
1.32298e-32
7.34238e-32
-3.42114e-47
2.86713e-32
3.4348e-32
8.76351e-32
3.07475e-32
-2.29586e-32
2.46322e-46
2.57932e-32
-1.25898e-46
5.20913e-32
3.07475e-32
-2.61401e-32
-5.21531e-33
2.86713e-32
1.43004e-46
-1.60812e-32
1.32298e-32
-2.29586e-32
-5.21531e-33
-1.43259e-32

