# vtk DataFile Version 2.0
FEM, Created by Wutzow
ASCII
DATASET UNSTRUCTURED_GRID
POINTS 25 Float64
0 0 0
0.418919 0.04298 0
0.581081 0.04298 0
1 0 0
0.178048 0.146705 0
0.5 0.23206 0
0.821952 0.146705 0
0 0.333333 0
0.328744 0.350305 0
0.671256 0.350305 0
1 0.333333 0
0.168543 0.507205 0
0.5 0.540376 0
0.831457 0.507205 0
0 0.666667 0
0.336697 0.647464 0
0.663303 0.647464 0
1 0.666667 0
0.138103 0.812623 0
0.5 0.817443 0
0.861897 0.812623 0
0 1 0
0.295803 0.949166 0
0.704197 0.949166 0
1 1 0

CELLS 4 44
10 0 3 12 1 2 6 9 8 4 5
10 3 24 12 10 17 20 16 9 6 13
10 24 21 12 23 22 18 15 16 20 19
10 21 0 12 14 7 4 8 15 18 11

CELL_TYPES 4
69
69
69
69

CELL_DATA 4
POINT_DATA 25
VECTORS Y Float64
0 0 0.0
0.418919 0.04298 0.0
0.581081 0.04298 0.0
1 0 0.0
0.178048 0.146705 0.0
0.5 0.23206 0.0
0.821952 0.146705 0.0
0 0.333333 0.0
0.328744 0.350305 0.0
0.671256 0.350305 0.0
1 0.333333 0.0
0.168543 0.507205 0.0
0.5 0.540376 0.0
0.831457 0.507205 0.0
0 0.666667 0.0
0.336697 0.647464 0.0
0.663303 0.647464 0.0
1 0.666667 0.0
0.138103 0.812623 0.0
0.5 0.817443 0.0
0.861897 0.812623 0.0
0 1 0.0
0.295803 0.949166 0.0
0.704197 0.949166 0.0
1 1 0.0

CELL_DATA 4
POINT_DATA 25
VECTORS U Float64
0 0 0.0
0.0855855 0.04298 0.0
-0.0855855 0.04298 0.0
0 0 0.0
0.0113812 -0.0199619 0.0
7.21645e-15 0.0653929 0.0
-0.0113812 -0.0199619 0.0
0 0 0.0
-0.00458936 0.0169721 0.0
0.00458936 0.0169721 0.0
0 0 0.0
0.00187619 0.0072052 0.0
-1.39333e-14 0.0403764 0.0
-0.00187619 0.0072052 0.0
0 0 0.0
0.00336376 -0.0192028 0.0
-0.00336376 -0.0192028 0.0
0 0 0.0
-0.0285634 -0.0207107 0.0
7.77156e-16 -0.0158906 0.0
0.0285634 -0.0207107 0.0
0 0 0.0
-0.0375304 -0.0508344 0.0
0.0375304 -0.0508344 0.0
0 0 0.0

CELL_DATA 4
POINT_DATA 25
TENSORS E Float64
0.0823142 0.00280657  0.00
0.00280657 -0.0408207  0.00
0.00 0.00  0.00

0.264221 -0.0395674  0.00
-0.0395674 -0.130552  0.00
0.00 0.00  0.00

0.264221 0.0395674  0.00
0.0395674 -0.130552  0.00
0.00 0.00  0.00

0.0823142 -0.00280657  0.00
-0.00280657 -0.0408207  0.00
0.00 0.00  0.00

0.177586 -0.036826  0.00
-0.036826 -0.0108988  0.00
0.00 0.00  0.00

-0.240338 3.40526e-15  0.00
3.40526e-15 -0.00017331  0.00
0.00 0.00  0.00

0.177586 0.036826  0.00
0.036826 -0.0108988  0.00
0.00 0.00  0.00

-0.0853917 0.00272701  0.00
0.00272701 0.110372  0.00
0.00 0.00  0.00

0.188783 0.0149191  0.00
0.0149191 -0.123351  0.00
0.00 0.00  0.00

0.188783 -0.0149191  0.00
-0.0149191 -0.123351  0.00
0.00 0.00  0.00

-0.0853917 -0.00272701  0.00
-0.00272701 0.110372  0.00
0.00 0.00  0.00

0.0315691 -0.0198576  0.00
-0.0198576 0.00598202  0.00
0.00 0.00  0.00

0.000911289 1.37043e-16  0.00
1.37043e-16 -0.0787215  0.00
0.00 0.00  0.00

0.0315691 0.0198576  0.00
0.0198576 0.00598202  0.00
0.00 0.00  0.00

-0.0797912 -0.0245977  0.00
-0.0245977 0.0396875  0.00
0.00 0.00  0.00

-0.204789 0.0210282  0.00
0.0210282 -0.113722  0.00
0.00 0.00  0.00

-0.204789 -0.0210282  0.00
-0.0210282 -0.113722  0.00
0.00 0.00  0.00

-0.0797912 0.0245977  0.00
0.0245977 0.0396875  0.00
0.00 0.00  0.00

-0.171924 -0.0582077  0.00
-0.0582077 -0.154235  0.00
0.00 0.00  0.00

0.215301 5.90066e-15  0.00
5.90066e-15 -0.0394834  0.00
0.00 0.00  0.00

-0.171924 0.0582077  0.00
0.0582077 -0.154235  0.00
0.00 0.00  0.00

-0.0848804 0.00721868  0.00
0.00721868 -0.0494467  0.00
0.00 0.00  0.00

-0.0981919 -0.0397335  0.00
-0.0397335 -0.200627  0.00
0.00 0.00  0.00

-0.0981919 0.0397335  0.00
0.0397335 -0.200627  0.00
0.00 0.00  0.00

-0.0848804 -0.00721868  0.00
-0.00721868 -0.0494467  0.00
0.00 0.00  0.00


CELL_DATA 4
POINT_DATA 25
TENSORS S Float64
0.0823142 0.00280657  0.00
0.00280657 -0.0408207  0.00
0.00 0.00  0.00

0.264221 -0.0395674  0.00
-0.0395674 -0.130552  0.00
0.00 0.00  0.00

0.264221 0.0395674  0.00
0.0395674 -0.130552  0.00
0.00 0.00  0.00

0.0823142 -0.00280657  0.00
-0.00280657 -0.0408207  0.00
0.00 0.00  0.00

0.177586 -0.036826  0.00
-0.036826 -0.0108988  0.00
0.00 0.00  0.00

-0.240338 3.40526e-15  0.00
3.40526e-15 -0.00017331  0.00
0.00 0.00  0.00

0.177586 0.036826  0.00
0.036826 -0.0108988  0.00
0.00 0.00  0.00

-0.0853917 0.00272701  0.00
0.00272701 0.110372  0.00
0.00 0.00  0.00

0.188783 0.0149191  0.00
0.0149191 -0.123351  0.00
0.00 0.00  0.00

0.188783 -0.0149191  0.00
-0.0149191 -0.123351  0.00
0.00 0.00  0.00

-0.0853917 -0.00272701  0.00
-0.00272701 0.110372  0.00
0.00 0.00  0.00

0.0315691 -0.0198576  0.00
-0.0198576 0.00598202  0.00
0.00 0.00  0.00

0.000911289 1.37043e-16  0.00
1.37043e-16 -0.0787215  0.00
0.00 0.00  0.00

0.0315691 0.0198576  0.00
0.0198576 0.00598202  0.00
0.00 0.00  0.00

-0.0797912 -0.0245977  0.00
-0.0245977 0.0396875  0.00
0.00 0.00  0.00

-0.204789 0.0210282  0.00
0.0210282 -0.113722  0.00
0.00 0.00  0.00

-0.204789 -0.0210282  0.00
-0.0210282 -0.113722  0.00
0.00 0.00  0.00

-0.0797912 0.0245977  0.00
0.0245977 0.0396875  0.00
0.00 0.00  0.00

-0.171924 -0.0582077  0.00
-0.0582077 -0.154235  0.00
0.00 0.00  0.00

0.215301 5.90066e-15  0.00
5.90066e-15 -0.0394834  0.00
0.00 0.00  0.00

-0.171924 0.0582077  0.00
0.0582077 -0.154235  0.00
0.00 0.00  0.00

-0.0848804 0.00721868  0.00
0.00721868 -0.0494467  0.00
0.00 0.00  0.00

-0.0981919 -0.0397335  0.00
-0.0397335 -0.200627  0.00
0.00 0.00  0.00

-0.0981919 0.0397335  0.00
0.0397335 -0.200627  0.00
0.00 0.00  0.00

-0.0848804 -0.00721868  0.00
-0.00721868 -0.0494467  0.00
0.00 0.00  0.00


CELL_DATA 4
POINT_DATA 25
SCALARS ue float
LOOKUP_TABLE default
-0.0116688
-0.0252663
-0.0252663
-0.0116688
-0.0229806
0.0251624
-0.0229806
0.0071498
-0.0188837
-0.0188837
0.0071498
0.00619967
-0.00743296
0.00619967
-0.0106418
-0.00138801
-0.00138801
-0.0106418
0.00696599
0.0176362
0.00696599
0.00355256
0.0117977
0.0117977
0.00355256

