# vtk DataFile Version 2.0
FEM, Created by Wutzow
ASCII
DATASET UNSTRUCTURED_GRID
POINTS 25 Float64
0 0 0
0.419183 0.0432002 0
0.580817 0.0432002 0
1 0 0
0.178127 0.14675 0
0.5 0.232224 0
0.821873 0.14675 0
0 0.333333 0
0.328748 0.350346 0
0.671252 0.350346 0
1 0.333333 0
0.168508 0.507208 0
0.5 0.540356 0
0.831492 0.507208 0
0 0.666667 0
0.336704 0.647461 0
0.663296 0.647461 0
1 0.666667 0
0.138125 0.812515 0
0.5 0.817397 0
0.861875 0.812515 0
0 1 0
0.295837 0.949035 0
0.704163 0.949035 0
1 1 0

CELLS 4 44
10 0 3 12 1 2 6 9 8 4 5
10 3 24 12 10 17 20 16 9 6 13
10 24 21 12 23 22 18 15 16 20 19
10 21 0 12 14 7 4 8 15 18 11

CELL_TYPES 4
69
69
69
69

CELL_DATA 4
POINT_DATA 25
VECTORS Y Float64
0 0 0.0
0.419183 0.0432002 0.0
0.580817 0.0432002 0.0
1 0 0.0
0.178127 0.14675 0.0
0.5 0.232224 0.0
0.821873 0.14675 0.0
0 0.333333 0.0
0.328748 0.350346 0.0
0.671252 0.350346 0.0
1 0.333333 0.0
0.168508 0.507208 0.0
0.5 0.540356 0.0
0.831492 0.507208 0.0
0 0.666667 0.0
0.336704 0.647461 0.0
0.663296 0.647461 0.0
1 0.666667 0.0
0.138125 0.812515 0.0
0.5 0.817397 0.0
0.861875 0.812515 0.0
0 1 0.0
0.295837 0.949035 0.0
0.704163 0.949035 0.0
1 1 0.0

CELL_DATA 4
POINT_DATA 25
VECTORS U Float64
0 0 0.0
0.0858498 0.0432002 0.0
-0.0858498 0.0432002 0.0
0 0 0.0
0.0114601 -0.0199171 0.0
7.77156e-15 0.0655578 0.0
-0.0114601 -0.0199171 0.0
0 0 0.0
-0.00458521 0.0170125 0.0
0.00458521 0.0170125 0.0
0 0 0.0
0.00184155 0.00720848 0.0
-1.4877e-14 0.0403563 0.0
-0.00184155 0.00720848 0.0
0 0 0.0
0.00337072 -0.0192056 0.0
-0.00337072 -0.0192056 0.0
0 0 0.0
-0.0285416 -0.0208181 0.0
9.99201e-16 -0.0159363 0.0
0.0285416 -0.0208181 0.0
0 0 0.0
-0.0374965 -0.0509646 0.0
0.0374965 -0.0509646 0.0
0 0 0.0

CELL_DATA 4
POINT_DATA 25
TENSORS E Float64
0.0828381 0.00158107  0.00
0.00158107 -0.0400877  0.00
0.00 0.00  0.00

0.247732 -0.0412193  0.00
-0.0412193 -0.124528  0.00
0.00 0.00  0.00

0.247732 0.0412193  0.00
0.0412193 -0.124528  0.00
0.00 0.00  0.00

0.0828381 -0.00158107  0.00
-0.00158107 -0.0400877  0.00
0.00 0.00  0.00

0.178692 -0.0392117  0.00
-0.0392117 -0.0101524  0.00
0.00 0.00  0.00

-0.241811 -2.91303e-15  0.00
-2.91303e-15 -0.00824796  0.00
0.00 0.00  0.00

0.178692 0.0392117  0.00
0.0392117 -0.0101524  0.00
0.00 0.00  0.00

-0.0616364 0.00203611  0.00
0.00203611 0.104928  0.00
0.00 0.00  0.00

0.200141 0.0121582  0.00
0.0121582 -0.121795  0.00
0.00 0.00  0.00

0.200141 -0.0121582  0.00
-0.0121582 -0.121795  0.00
0.00 0.00  0.00

-0.0616364 -0.00203611  0.00
-0.00203611 0.104928  0.00
0.00 0.00  0.00

0.0156602 -0.023658  0.00
-0.023658 0.00135183  0.00
0.00 0.00  0.00

0.00433265 -2.24126e-15  0.00
-2.24126e-15 -0.0783916  0.00
0.00 0.00  0.00

0.0156602 0.023658  0.00
0.023658 0.00135183  0.00
0.00 0.00  0.00

-0.0735046 -0.0291608  0.00
-0.0291608 0.0357994  0.00
0.00 0.00  0.00

-0.198414 0.018127  0.00
0.018127 -0.112397  0.00
0.00 0.00  0.00

-0.198414 -0.018127  0.00
-0.018127 -0.112397  0.00
0.00 0.00  0.00

-0.0735046 0.0291608  0.00
0.0291608 0.0357994  0.00
0.00 0.00  0.00

-0.167339 -0.0601024  0.00
-0.0601024 -0.154666  0.00
0.00 0.00  0.00

0.224717 3.41645e-14  0.00
3.41645e-14 -0.0579782  0.00
0.00 0.00  0.00

-0.167339 0.0601024  0.00
0.0601024 -0.154666  0.00
0.00 0.00  0.00

-0.0800503 0.00589186  0.00
0.00589186 -0.0494378  0.00
0.00 0.00  0.00

-0.103377 -0.0368819  0.00
-0.0368819 -0.196435  0.00
0.00 0.00  0.00

-0.103377 0.0368819  0.00
0.0368819 -0.196435  0.00
0.00 0.00  0.00

-0.0800503 -0.00589186  0.00
-0.00589186 -0.0494378  0.00
0.00 0.00  0.00


CELL_DATA 4
POINT_DATA 25
TENSORS S Float64
0.0828381 0.00158107  0.00
0.00158107 -0.0400877  0.00
0.00 0.00  0.00

0.247732 -0.0412193  0.00
-0.0412193 -0.124528  0.00
0.00 0.00  0.00

0.247732 0.0412193  0.00
0.0412193 -0.124528  0.00
0.00 0.00  0.00

0.0828381 -0.00158107  0.00
-0.00158107 -0.0400877  0.00
0.00 0.00  0.00

0.178692 -0.0392117  0.00
-0.0392117 -0.0101524  0.00
0.00 0.00  0.00

-0.241811 -2.91303e-15  0.00
-2.91303e-15 -0.00824796  0.00
0.00 0.00  0.00

0.178692 0.0392117  0.00
0.0392117 -0.0101524  0.00
0.00 0.00  0.00

-0.0616364 0.00203611  0.00
0.00203611 0.104928  0.00
0.00 0.00  0.00

0.200141 0.0121582  0.00
0.0121582 -0.121795  0.00
0.00 0.00  0.00

0.200141 -0.0121582  0.00
-0.0121582 -0.121795  0.00
0.00 0.00  0.00

-0.0616364 -0.00203611  0.00
-0.00203611 0.104928  0.00
0.00 0.00  0.00

0.0156602 -0.023658  0.00
-0.023658 0.00135183  0.00
0.00 0.00  0.00

0.00433265 -2.24126e-15  0.00
-2.24126e-15 -0.0783916  0.00
0.00 0.00  0.00

0.0156602 0.023658  0.00
0.023658 0.00135183  0.00
0.00 0.00  0.00

-0.0735046 -0.0291608  0.00
-0.0291608 0.0357994  0.00
0.00 0.00  0.00

-0.198414 0.018127  0.00
0.018127 -0.112397  0.00
0.00 0.00  0.00

-0.198414 -0.018127  0.00
-0.018127 -0.112397  0.00
0.00 0.00  0.00

-0.0735046 0.0291608  0.00
0.0291608 0.0357994  0.00
0.00 0.00  0.00

-0.167339 -0.0601024  0.00
-0.0601024 -0.154666  0.00
0.00 0.00  0.00

0.224717 3.41645e-14  0.00
3.41645e-14 -0.0579782  0.00
0.00 0.00  0.00

-0.167339 0.0601024  0.00
0.0601024 -0.154666  0.00
0.00 0.00  0.00

-0.0800503 0.00589186  0.00
0.00589186 -0.0494378  0.00
0.00 0.00  0.00

-0.103377 -0.0368819  0.00
-0.0368819 -0.196435  0.00
0.00 0.00  0.00

-0.103377 0.0368819  0.00
0.0368819 -0.196435  0.00
0.00 0.00  0.00

-0.0800503 -0.00589186  0.00
-0.00589186 -0.0494378  0.00
0.00 0.00  0.00


CELL_DATA 4
POINT_DATA 25
SCALARS ue float
LOOKUP_TABLE default
-0.0111636
-0.0241217
-0.0241217
-0.0111636
-0.0221854
0.0255761
-0.0221854
0.00598466
-0.0190249
-0.0190249
0.00598466
0.0061623
-0.00689163
0.0061623
-0.00907244
-0.00138563
-0.00138563
-0.00907244
0.00766009
0.0200397
0.00766009
0.00332744
0.0113763
0.0113763
0.00332744

