# vtk DataFile Version 2.0
FEM, Created by Wutzow
ASCII
DATASET UNSTRUCTURED_GRID
POINTS 25 Float64
0 0 0
0.419192 0.0431635 0
0.580808 0.0431635 0
1 0 0
0.176564 0.145317 0
0.5 0.234307 0
0.823436 0.145317 0
0 0.333333 0
0.332022 0.351803 0
0.667978 0.351803 0
1 0.333333 0
0.169861 0.507513 0
0.5 0.545054 0
0.830139 0.507513 0
0 0.666667 0
0.338712 0.648581 0
0.661288 0.648581 0
1 0.666667 0
0.140608 0.814667 0
0.5 0.821721 0
0.859392 0.814667 0
0 1 0
0.295615 0.954216 0
0.704385 0.954216 0
1 1 0

CELLS 4 44
10 0 3 12 1 2 6 9 8 4 5
10 3 24 12 10 17 20 16 9 6 13
10 24 21 12 23 22 18 15 16 20 19
10 21 0 12 14 7 4 8 15 18 11

CELL_TYPES 4
69
69
69
69

CELL_DATA 4
POINT_DATA 25
VECTORS Y Float64
0 0 0.0
0.419192 0.0431635 0.0
0.580808 0.0431635 0.0
1 0 0.0
0.176564 0.145317 0.0
0.5 0.234307 0.0
0.823436 0.145317 0.0
0 0.333333 0.0
0.332022 0.351803 0.0
0.667978 0.351803 0.0
1 0.333333 0.0
0.169861 0.507513 0.0
0.5 0.545054 0.0
0.830139 0.507513 0.0
0 0.666667 0.0
0.338712 0.648581 0.0
0.661288 0.648581 0.0
1 0.666667 0.0
0.140608 0.814667 0.0
0.5 0.821721 0.0
0.859392 0.814667 0.0
0 1 0.0
0.295615 0.954216 0.0
0.704385 0.954216 0.0
1 1 0.0

CELL_DATA 4
POINT_DATA 25
VECTORS U Float64
0 0 0.0
0.0858583 0.0431635 0.0
-0.0858583 0.0431635 0.0
0 0 0.0
0.00989727 -0.0213498 0.0
-3.88578e-16 0.0676406 0.0
-0.00989727 -0.0213498 0.0
0 0 0.0
-0.00131164 0.0184693 0.0
0.00131164 0.0184693 0.0
0 0 0.0
0.00319409 0.00751326 0.0
-3.05311e-15 0.0450544 0.0
-0.00319409 0.00751326 0.0
0 0 0.0
0.0053785 -0.018086 0.0
-0.0053785 -0.018086 0.0
0 0 0.0
-0.0260586 -0.018666 0.0
-4.996e-16 -0.0116126 0.0
0.0260586 -0.018666 0.0
0 0 0.0
-0.037718 -0.0457845 0.0
0.037718 -0.0457845 0.0
0 0 0.0

CELL_DATA 4
POINT_DATA 25
TENSORS E Float64
0.0754092 0.0183906  0.00
0.0183906 -0.00604426  0.00
0.00 0.00  0.00

0.312732 -0.0589259  0.00
-0.0589259 0.0356622  0.00
0.00 0.00  0.00

0.312732 0.0589259  0.00
0.0589259 0.0356622  0.00
0.00 0.00  0.00

0.0754092 -0.0183906  0.00
-0.0183906 -0.00604426  0.00
0.00 0.00  0.00

0.166919 -0.00776888  0.00
-0.00776888 0.0746178  0.00
0.00 0.00  0.00

-0.282171 -4.47472e-15  0.00
-4.47472e-15 -0.0375529  0.00
0.00 0.00  0.00

0.166919 0.00776888  0.00
0.00776888 0.0746178  0.00
0.00 0.00  0.00

-0.126401 0.0419868  0.00
0.0419868 0.0342921  0.00
0.00 0.00  0.00

0.202253 0.0360775  0.00
0.0360775 -0.0389379  0.00
0.00 0.00  0.00

0.202253 -0.0360775  0.00
-0.0360775 -0.0389379  0.00
0.00 0.00  0.00

-0.126401 -0.0419868  0.00
-0.0419868 0.0342921  0.00
0.00 0.00  0.00

0.0864373 -0.0292688  0.00
-0.0292688 -0.0208063  0.00
0.00 0.00  0.00

-0.0570918 -1.29237e-16  0.00
-1.29237e-16 0.000555741  0.00
0.00 0.00  0.00

0.0864373 0.0292688  0.00
0.0292688 -0.0208063  0.00
0.00 0.00  0.00

-0.178426 0.00924748  0.00
0.00924748 -0.0582777  0.00
0.00 0.00  0.00

-0.35125 0.0492661  0.00
0.0492661 -0.0117477  0.00
0.00 0.00  0.00

-0.35125 -0.0492661  0.00
-0.0492661 -0.0117477  0.00
0.00 0.00  0.00

-0.178426 -0.00924748  0.00
-0.00924748 -0.0582777  0.00
0.00 0.00  0.00

-0.291267 -0.053929  0.00
-0.053929 -0.0629802  0.00
0.00 0.00  0.00

0.37082 1.24289e-14  0.00
1.24289e-14 -0.0854162  0.00
0.00 0.00  0.00

-0.291267 0.053929  0.00
0.053929 -0.0629802  0.00
0.00 0.00  0.00

-0.136457 0.0279157  0.00
0.0279157 -0.00340248  0.00
0.00 0.00  0.00

-0.137732 -0.0855354  0.00
-0.0855354 -0.0138885  0.00
0.00 0.00  0.00

-0.137732 0.0855354  0.00
0.0855354 -0.0138885  0.00
0.00 0.00  0.00

-0.136457 -0.0279157  0.00
-0.0279157 -0.00340248  0.00
0.00 0.00  0.00


CELL_DATA 4
POINT_DATA 25
TENSORS S Float64
0.0754092 0.0183906  0.00
0.0183906 -0.00604426  0.00
0.00 0.00  0.00

0.312732 -0.0589259  0.00
-0.0589259 0.0356622  0.00
0.00 0.00  0.00

0.312732 0.0589259  0.00
0.0589259 0.0356622  0.00
0.00 0.00  0.00

0.0754092 -0.0183906  0.00
-0.0183906 -0.00604426  0.00
0.00 0.00  0.00

0.166919 -0.00776888  0.00
-0.00776888 0.0746178  0.00
0.00 0.00  0.00

-0.282171 -4.47472e-15  0.00
-4.47472e-15 -0.0375529  0.00
0.00 0.00  0.00

0.166919 0.00776888  0.00
0.00776888 0.0746178  0.00
0.00 0.00  0.00

-0.126401 0.0419868  0.00
0.0419868 0.0342921  0.00
0.00 0.00  0.00

0.202253 0.0360775  0.00
0.0360775 -0.0389379  0.00
0.00 0.00  0.00

0.202253 -0.0360775  0.00
-0.0360775 -0.0389379  0.00
0.00 0.00  0.00

-0.126401 -0.0419868  0.00
-0.0419868 0.0342921  0.00
0.00 0.00  0.00

0.0864373 -0.0292688  0.00
-0.0292688 -0.0208063  0.00
0.00 0.00  0.00

-0.0570918 -1.29237e-16  0.00
-1.29237e-16 0.000555741  0.00
0.00 0.00  0.00

0.0864373 0.0292688  0.00
0.0292688 -0.0208063  0.00
0.00 0.00  0.00

-0.178426 0.00924748  0.00
0.00924748 -0.0582777  0.00
0.00 0.00  0.00

-0.35125 0.0492661  0.00
0.0492661 -0.0117477  0.00
0.00 0.00  0.00

-0.35125 -0.0492661  0.00
-0.0492661 -0.0117477  0.00
0.00 0.00  0.00

-0.178426 -0.00924748  0.00
-0.00924748 -0.0582777  0.00
0.00 0.00  0.00

-0.291267 -0.053929  0.00
-0.053929 -0.0629802  0.00
0.00 0.00  0.00

0.37082 1.24289e-14  0.00
1.24289e-14 -0.0854162  0.00
0.00 0.00  0.00

-0.291267 0.053929  0.00
0.053929 -0.0629802  0.00
0.00 0.00  0.00

-0.136457 0.0279157  0.00
0.0279157 -0.00340248  0.00
0.00 0.00  0.00

-0.137732 -0.0855354  0.00
-0.0855354 -0.0138885  0.00
0.00 0.00  0.00

-0.137732 0.0855354  0.00
0.0855354 -0.0138885  0.00
0.00 0.00  0.00

-0.136457 -0.0279157  0.00
-0.0279157 -0.00340248  0.00
0.00 0.00  0.00


CELL_DATA 4
POINT_DATA 25
SCALARS ue float
LOOKUP_TABLE default
-0.00313467
-0.000362376
-0.000362376
-0.00313467
-0.0145298
0.0281017
-0.0145298
-0.0138285
-0.00499833
-0.00499833
-0.0138285
0.0140457
-0.0266783
0.0140457
-0.0058224
-0.0628221
-0.0628221
-0.0058224
-0.0439376
0.0659748
-0.0439376
-0.0250448
-0.0405326
-0.0405326
-0.0250448

