# vtk DataFile Version 2.0
FEM, Created by Wutzow
ASCII
DATASET UNSTRUCTURED_GRID
POINTS 10 Float64
0 0 0
2.46063 -1.09001 0
5.79228 -1.61745 0
9 1 0
0 3 0
2.83446 1.96354 0
5.61946 0.934305 0
0 6 0
3.35042 5.02719 0
0 9 0

CELLS 1 11
10 0 3 9 1 2 6 8 7 4 5

CELL_TYPES 1
69

CELL_DATA 1
POINT_DATA 10
VECTORS Y Float64
0 0 0.0
2.46063 -1.09001 0.0
5.79228 -1.61745 0.0
9 1 0.0
0 3 0.0
2.83446 1.96354 0.0
5.61946 0.934305 0.0
0 6 0.0
3.35042 5.02719 0.0
0 9 0.0

CELL_DATA 1
POINT_DATA 10
VECTORS U Float64
0 0 0.0
-0.539371 -1.09001 0.0
-0.20772 -1.61745 0.0
0 1 0.0
0 0 0.0
-0.16554 -1.03646 0.0
-0.380545 -2.0657 0.0
0 0 0.0
0.350425 -0.972815 0.0
0 0 0.0

CELL_DATA 1
POINT_DATA 10
TENSORS E Float64
0.0267296 0.119682  0.00
0.119682 1.71351e-16  0.00
0.00 0.00  0.00

-0.0155296 -0.0562784  0.00
-0.0562784 -9.50387e-17  0.00
0.00 0.00  0.00

0.0163934 0.0626807  0.00
0.0626807 1.02811e-16  0.00
0.00 0.00  0.00

0.0384721 0.177303  0.00
0.177303 2.41306e-16  0.00
0.00 0.00  0.00

0.00905683 0.076931  0.00
0.076931 4.8875e-17  0.00
0.00 0.00  0.00

0.00154321 -0.0277778  0.00
-0.0277778 1.04154e-30  0.00
0.00 0.00  0.00

0.0163934 0.0626807  0.00
0.0626807 1.02811e-16  0.00
0.00 0.00  0.00

0.00905683 0.076931  0.00
0.076931 4.8875e-17  0.00
0.00 0.00  0.00

-0.0155296 -0.0562784  0.00
-0.0562784 -9.50387e-17  0.00
0.00 0.00  0.00

0.0267296 0.119682  0.00
0.119682 1.71351e-16  0.00
0.00 0.00  0.00


CELL_DATA 1
POINT_DATA 10
TENSORS S Float64
0.0267296 0.119682  0.00
0.119682 1.71351e-16  0.00
0.00 0.00  0.00

-0.0155296 -0.0562784  0.00
-0.0562784 -9.50387e-17  0.00
0.00 0.00  0.00

0.0163934 0.0626807  0.00
0.0626807 1.02811e-16  0.00
0.00 0.00  0.00

0.0384721 0.177303  0.00
0.177303 2.41306e-16  0.00
0.00 0.00  0.00

0.00905683 0.076931  0.00
0.076931 4.8875e-17  0.00
0.00 0.00  0.00

0.00154321 -0.0277778  0.00
-0.0277778 1.04154e-30  0.00
0.00 0.00  0.00

0.0163934 0.0626807  0.00
0.0626807 1.02811e-16  0.00
0.00 0.00  0.00

0.00905683 0.076931  0.00
0.076931 4.8875e-17  0.00
0.00 0.00  0.00

-0.0155296 -0.0562784  0.00
-0.0562784 -9.50387e-17  0.00
0.00 0.00  0.00

0.0267296 0.119682  0.00
0.119682 1.71351e-16  0.00
0.00 0.00  0.00


CELL_DATA 1
POINT_DATA 10
SCALARS ue float
LOOKUP_TABLE default
0.013858
-0.00803944
0.00849282
0.0199315
0.00467029
0.000772796
0.00849282
0.00467029
-0.00803944
0.013858

