# vtk DataFile Version 2.0
FEM, Created by Wutzow
ASCII
DATASET UNSTRUCTURED_GRID
POINTS 10 Float64
0 0 0
2.18874 -1.09341 0
5.52926 -1.52254 0
9 1 0
0 3 0
2.63141 1.92511 0
5.17015 0.75561 0
0 6 0
3.09908 4.90198 0
0 9 0

CELLS 1 11
10 0 3 9 1 2 6 8 7 4 5

CELL_TYPES 1
69

CELL_DATA 1
POINT_DATA 10
VECTORS Y Float64
0 0 0.0
2.18874 -1.09341 0.0
5.52926 -1.52254 0.0
9 1 0.0
0 3 0.0
2.63141 1.92511 0.0
5.17015 0.75561 0.0
0 6 0.0
3.09908 4.90198 0.0
0 9 0.0

CELL_DATA 1
POINT_DATA 10
VECTORS U Float64
0 0 0.0
-0.811264 -1.09341 0.0
-0.470744 -1.52254 0.0
0 1 0.0
0 0 0.0
-0.368587 -1.07489 0.0
-0.829846 -2.24439 0.0
0 0 0.0
0.0990801 -1.09802 0.0
0 0 0.0

CELL_DATA 1
POINT_DATA 10
TENSORS E Float64
0.0369545 -0.0386113  0.00
-0.0386113 -0.101319  0.00
0.00 0.00  0.00

0.00290569 -0.119409  0.00
-0.119409 0.0481745  0.00
0.00 0.00  0.00

0.291757 0.0460402  0.00
0.0460402 -0.179807  0.00
0.00 0.00  0.00

0.1396 0.0676745  0.00
0.0676745 -0.152877  0.00
0.00 0.00  0.00

-0.248357 -0.0501437  0.00
-0.0501437 -0.040396  0.00
0.00 0.00  0.00

0.0512379 -0.176532  0.00
-0.176532 0.0136218  0.00
0.00 0.00  0.00

-0.171157 -0.148402  0.00
-0.148402 -0.189699  0.00
0.00 0.00  0.00

0.176228 0.0477508  0.00
0.0477508 -0.0414492  0.00
0.00 0.00  0.00

-0.0354233 -0.215957  0.00
-0.215957 0.0372298  0.00
0.00 0.00  0.00

0.238435 0.0370798  0.00
0.0370798 -0.0981389  0.00
0.00 0.00  0.00


CELL_DATA 1
POINT_DATA 10
TENSORS S Float64
0.0369545 -0.0386113  0.00
-0.0386113 -0.101319  0.00
0.00 0.00  0.00

0.00290569 -0.119409  0.00
-0.119409 0.0481745  0.00
0.00 0.00  0.00

0.291757 0.0460402  0.00
0.0460402 -0.179807  0.00
0.00 0.00  0.00

0.1396 0.0676745  0.00
0.0676745 -0.152877  0.00
0.00 0.00  0.00

-0.248357 -0.0501437  0.00
-0.0501437 -0.040396  0.00
0.00 0.00  0.00

0.0512379 -0.176532  0.00
-0.176532 0.0136218  0.00
0.00 0.00  0.00

-0.171157 -0.148402  0.00
-0.148402 -0.189699  0.00
0.00 0.00  0.00

0.176228 0.0477508  0.00
0.0477508 -0.0414492  0.00
0.00 0.00  0.00

-0.0354233 -0.215957  0.00
-0.215957 0.0372298  0.00
0.00 0.00  0.00

0.238435 0.0370798  0.00
0.0370798 -0.0981389  0.00
0.00 0.00  0.00


CELL_DATA 1
POINT_DATA 10
SCALARS ue float
LOOKUP_TABLE default
0.0749092
0.0145867
0.0058245
0.0585573
0.00731378
0.0325689
0.0446865
-0.00447913
0.0416557
0.0606449

