# vtk DataFile Version 2.0
FEM, Created by Wutzow
ASCII
DATASET UNSTRUCTURED_GRID
POINTS 10 Float64
0 0 0
2.18589 -1.09418 0
5.52663 -1.5234 0
9 1 0
0 3 0
2.63112 1.92439 0
5.16507 0.749451 0
0 6 0
3.09719 4.89916 0
0 9 0

CELLS 1 11
10 0 3 9 1 2 6 8 7 4 5

CELL_TYPES 1
69

CELL_DATA 1
POINT_DATA 10
VECTORS Y Float64
0 0 0.0
2.18589 -1.09418 0.0
5.52663 -1.5234 0.0
9 1 0.0
0 3 0.0
2.63112 1.92439 0.0
5.16507 0.749451 0.0
0 6 0.0
3.09719 4.89916 0.0
0 9 0.0

CELL_DATA 1
POINT_DATA 10
VECTORS U Float64
0 0 0.0
-0.814113 -1.09418 0.0
-0.473373 -1.5234 0.0
0 1 0.0
0 0 0.0
-0.36888 -1.07561 0.0
-0.834926 -2.25055 0.0
0 0 0.0
0.0971874 -1.10084 0.0
0 0 0.0

CELL_DATA 1
POINT_DATA 10
TENSORS E Float64
0.0218498 -0.0618168  0.00
-0.0618168 -0.105072  0.00
0.00 0.00  0.00

0.000400983 -0.104413  0.00
-0.104413 0.0513313  0.00
0.00 0.00  0.00

0.294644 0.0467437  0.00
0.0467437 -0.188288  0.00
0.00 0.00  0.00

0.129357 0.0455807  0.00
0.0455807 -0.154767  0.00
0.00 0.00  0.00

-0.249079 -0.053405  0.00
-0.053405 -0.0411176  0.00
0.00 0.00  0.00

0.0471237 -0.181123  0.00
-0.181123 0.0104274  0.00
0.00 0.00  0.00

-0.179277 -0.174055  0.00
-0.174055 -0.211526  0.00
0.00 0.00  0.00

0.180214 0.0463432  0.00
0.0463432 -0.0433528  0.00
0.00 0.00  0.00

-0.0442274 -0.225464  0.00
-0.225464 0.0258578  0.00
0.00 0.00  0.00

0.227523 0.022866  0.00
0.022866 -0.0975745  0.00
0.00 0.00  0.00


CELL_DATA 1
POINT_DATA 10
TENSORS S Float64
0.0218498 -0.0618168  0.00
-0.0618168 -0.105072  0.00
0.00 0.00  0.00

0.000400983 -0.104413  0.00
-0.104413 0.0513313  0.00
0.00 0.00  0.00

0.294644 0.0467437  0.00
0.0467437 -0.188288  0.00
0.00 0.00  0.00

0.129357 0.0455807  0.00
0.0455807 -0.154767  0.00
0.00 0.00  0.00

-0.249079 -0.053405  0.00
-0.053405 -0.0411176  0.00
0.00 0.00  0.00

0.0471237 -0.181123  0.00
-0.181123 0.0104274  0.00
0.00 0.00  0.00

-0.179277 -0.174055  0.00
-0.174055 -0.211526  0.00
0.00 0.00  0.00

0.180214 0.0463432  0.00
0.0463432 -0.0433528  0.00
0.00 0.00  0.00

-0.0442274 -0.225464  0.00
-0.225464 0.0258578  0.00
0.00 0.00  0.00

0.227523 0.022866  0.00
0.022866 -0.0975745  0.00
0.00 0.00  0.00


CELL_DATA 1
POINT_DATA 10
SCALARS ue float
LOOKUP_TABLE default
0.0780089
0.0134718
0.00365468
0.0583031
0.00973641
0.0339701
0.0557642
-0.00666958
0.0491754
0.0588162

