# vtk DataFile Version 2.0
FEM, Created by Wutzow
ASCII
DATASET UNSTRUCTURED_GRID
POINTS 10 Float64
0 0 0
2.18591 -1.09417 0
5.52665 -1.52339 0
9 1 0
0 3 0
2.63112 1.92439 0
5.16512 0.749499 0
0 6 0
3.0972 4.89919 0
0 9 0

CELLS 1 11
10 0 3 9 1 2 6 8 7 4 5

CELL_TYPES 1
69

CELL_DATA 1
POINT_DATA 10
VECTORS Y Float64
0 0 0.0
2.18591 -1.09417 0.0
5.52665 -1.52339 0.0
9 1 0.0
0 3 0.0
2.63112 1.92439 0.0
5.16512 0.749499 0.0
0 6 0.0
3.0972 4.89919 0.0
0 9 0.0

CELL_DATA 1
POINT_DATA 10
VECTORS U Float64
0 0 0.0
-0.814091 -1.09417 0.0
-0.473354 -1.52339 0.0
0 1 0.0
0 0 0.0
-0.368879 -1.07561 0.0
-0.834883 -2.2505 0.0
0 0 0.0
0.0972042 -1.10081 0.0
0 0 0.0

CELL_DATA 1
POINT_DATA 10
TENSORS E Float64
0.0230403 -0.060188  0.00
-0.060188 -0.104765  0.00
0.00 0.00  0.00

0.000489473 -0.105553  0.00
-0.105553 0.0509547  0.00
0.00 0.00  0.00

0.294649 0.0466776  0.00
0.0466776 -0.187844  0.00
0.00 0.00  0.00

0.130135 0.0469872  0.00
0.0469872 -0.1547  0.00
0.00 0.00  0.00

-0.249505 -0.0535015  0.00
-0.0535015 -0.0411018  0.00
0.00 0.00  0.00

0.0473432 -0.180704  0.00
-0.180704 0.0107417  0.00
0.00 0.00  0.00

-0.178575 -0.172053  0.00
-0.172053 -0.209692  0.00
0.00 0.00  0.00

0.17947 0.0462405  0.00
0.0462405 -0.0432079  0.00
0.00 0.00  0.00

-0.0437596 -0.224542  0.00
-0.224542 0.027  0.00
0.00 0.00  0.00

0.228446 0.0238046  0.00
0.0238046 -0.0977158  0.00
0.00 0.00  0.00


CELL_DATA 1
POINT_DATA 10
TENSORS S Float64
0.0230403 -0.060188  0.00
-0.060188 -0.104765  0.00
0.00 0.00  0.00

0.000489473 -0.105553  0.00
-0.105553 0.0509547  0.00
0.00 0.00  0.00

0.294649 0.0466776  0.00
0.0466776 -0.187844  0.00
0.00 0.00  0.00

0.130135 0.0469872  0.00
0.0469872 -0.1547  0.00
0.00 0.00  0.00

-0.249505 -0.0535015  0.00
-0.0535015 -0.0411018  0.00
0.00 0.00  0.00

0.0473432 -0.180704  0.00
-0.180704 0.0107417  0.00
0.00 0.00  0.00

-0.178575 -0.172053  0.00
-0.172053 -0.209692  0.00
0.00 0.00  0.00

0.17947 0.0462405  0.00
0.0462405 -0.0432079  0.00
0.00 0.00  0.00

-0.0437596 -0.224542  0.00
-0.224542 0.027  0.00
0.00 0.00  0.00

0.228446 0.0238046  0.00
0.0238046 -0.0977158  0.00
0.00 0.00  0.00


CELL_DATA 1
POINT_DATA 10
SCALARS ue float
LOOKUP_TABLE default
0.0778243
0.0135853
0.00381331
0.0584195
0.00966723
0.0338322
0.0548523
-0.00648851
0.0484685
0.0590162

