# vtk DataFile Version 2.0
FEM, Created by Wutzow
ASCII
DATASET UNSTRUCTURED_GRID
POINTS 10 Float64
0 0 0
2.18589 -1.09418 0
5.52663 -1.5234 0
9 1 0
0 3 0
2.63112 1.92439 0
5.16507 0.749451 0
0 6 0
3.09719 4.89916 0
0 9 0

CELLS 1 11
10 0 3 9 1 2 6 8 7 4 5

CELL_TYPES 1
69

CELL_DATA 1
POINT_DATA 10
VECTORS Y Float64
0 0 0.0
2.18589 -1.09418 0.0
5.52663 -1.5234 0.0
9 1 0.0
0 3 0.0
2.63112 1.92439 0.0
5.16507 0.749451 0.0
0 6 0.0
3.09719 4.89916 0.0
0 9 0.0

CELL_DATA 1
POINT_DATA 10
VECTORS U Float64
0 0 0.0
-0.814113 -1.09418 0.0
-0.473373 -1.5234 0.0
0 1 0.0
0 0 0.0
-0.36888 -1.07561 0.0
-0.834926 -2.25055 0.0
0 0 0.0
0.0971874 -1.10084 0.0
0 0 0.0

CELL_DATA 1
POINT_DATA 10
TENSORS E Float64
0.0218397 -0.0618294  0.00
-0.0618294 -0.105074  0.00
0.00 0.00  0.00

0.000400536 -0.104405  0.00
-0.104405 0.0513345  0.00
0.00 0.00  0.00

0.294644 0.046744  0.00
0.046744 -0.188289  0.00
0.00 0.00  0.00

0.129351 0.0455703  0.00
0.0455703 -0.154766  0.00
0.00 0.00  0.00

-0.249075 -0.0534034  0.00
-0.0534034 -0.0411173  0.00
0.00 0.00  0.00

0.0471218 -0.181126  0.00
-0.181126 0.0104248  0.00
0.00 0.00  0.00

-0.179284 -0.174071  0.00
-0.174071 -0.21154  0.00
0.00 0.00  0.00

0.18022 0.046344  0.00
0.046344 -0.0433536  0.00
0.00 0.00  0.00

-0.044233 -0.225472  0.00
-0.225472 0.0258473  0.00
0.00 0.00  0.00

0.227515 0.0228587  0.00
0.0228587 -0.097572  0.00
0.00 0.00  0.00


CELL_DATA 1
POINT_DATA 10
TENSORS S Float64
0.0218397 -0.0618294  0.00
-0.0618294 -0.105074  0.00
0.00 0.00  0.00

0.000400536 -0.104405  0.00
-0.104405 0.0513345  0.00
0.00 0.00  0.00

0.294644 0.046744  0.00
0.046744 -0.188289  0.00
0.00 0.00  0.00

0.129351 0.0455703  0.00
0.0455703 -0.154766  0.00
0.00 0.00  0.00

-0.249075 -0.0534034  0.00
-0.0534034 -0.0411173  0.00
0.00 0.00  0.00

0.0471218 -0.181126  0.00
-0.181126 0.0104248  0.00
0.00 0.00  0.00

-0.179284 -0.174071  0.00
-0.174071 -0.21154  0.00
0.00 0.00  0.00

0.18022 0.046344  0.00
0.046344 -0.0433536  0.00
0.00 0.00  0.00

-0.044233 -0.225472  0.00
-0.225472 0.0258473  0.00
0.00 0.00  0.00

0.227515 0.0228587  0.00
0.0228587 -0.097572  0.00
0.00 0.00  0.00


CELL_DATA 1
POINT_DATA 10
SCALARS ue float
LOOKUP_TABLE default
0.0780097
0.0134712
0.00365314
0.0583012
0.00973674
0.0339713
0.0557716
-0.00667127
0.0491816
0.0588138

