# vtk DataFile Version 2.0
FEM, Created by Wutzow
ASCII
DATASET UNSTRUCTURED_GRID
POINTS 10 Float64
0 0 0
2.23509 -1.07898 0
5.56809 -1.51389 0
9 1 0
0 3 0
2.64916 1.94067 0
5.23851 0.827596 0
0 6 0
3.12861 4.9362 0
0 9 0

CELLS 1 11
10 0 3 9 1 2 6 8 7 4 5

CELL_TYPES 1
69

CELL_DATA 1
POINT_DATA 10
VECTORS Y Float64
0 0 0.0
2.23509 -1.07898 0.0
5.56809 -1.51389 0.0
9 1 0.0
0 3 0.0
2.64916 1.94067 0.0
5.23851 0.827596 0.0
0 6 0.0
3.12861 4.9362 0.0
0 9 0.0

CELL_DATA 1
POINT_DATA 10
VECTORS U Float64
0 0 0.0
-0.76491 -1.07898 0.0
-0.431913 -1.51389 0.0
0 1 0.0
0 0 0.0
-0.350843 -1.05933 0.0
-0.761491 -2.1724 0.0
0 0 0.0
0.128614 -1.0638 0.0
0 0 0.0

CELL_DATA 1
POINT_DATA 10
TENSORS E Float64
0.0888524 0.0501866  0.00
0.0501866 -0.09388  0.00
0.00 0.00  0.00

0.0474194 -0.173382  0.00
-0.173382 0.0550018  0.00
0.00 0.00  0.00

0.282349 0.0653566  0.00
0.0653566 -0.142725  0.00
0.00 0.00  0.00

0.167612 0.1738  0.00
0.1738 -0.152055  0.00
0.00 0.00  0.00

-0.21856 -0.0208633  0.00
-0.0208633 -0.0378608  0.00
0.00 0.00  0.00

0.110831 -0.17509  0.00
-0.17509 0.0307201  0.00
0.00 0.00  0.00

-0.141598 -0.0733854  0.00
-0.0733854 -0.126972  0.00
0.00 0.00  0.00

0.209292 0.0797596  0.00
0.0797596 -0.0374776  0.00
0.00 0.00  0.00

0.051324 -0.211501  0.00
-0.211501 0.0711376  0.00
0.00 0.00  0.00

0.277707 0.107614  0.00
0.107614 -0.0990882  0.00
0.00 0.00  0.00


CELL_DATA 1
POINT_DATA 10
TENSORS S Float64
0.0888524 0.0501866  0.00
0.0501866 -0.09388  0.00
0.00 0.00  0.00

0.0474194 -0.173382  0.00
-0.173382 0.0550018  0.00
0.00 0.00  0.00

0.282349 0.0653566  0.00
0.0653566 -0.142725  0.00
0.00 0.00  0.00

0.167612 0.1738  0.00
0.1738 -0.152055  0.00
0.00 0.00  0.00

-0.21856 -0.0208633  0.00
-0.0208633 -0.0378608  0.00
0.00 0.00  0.00

0.110831 -0.17509  0.00
-0.17509 0.0307201  0.00
0.00 0.00  0.00

-0.141598 -0.0733854  0.00
-0.0733854 -0.126972  0.00
0.00 0.00  0.00

0.209292 0.0797596  0.00
0.0797596 -0.0374776  0.00
0.00 0.00  0.00

0.051324 -0.211501  0.00
-0.211501 0.0711376  0.00
0.00 0.00  0.00

0.277707 0.107614  0.00
0.107614 -0.0990882  0.00
0.00 0.00  0.00


CELL_DATA 1
POINT_DATA 10
SCALARS ue float
LOOKUP_TABLE default
0.0780146
0.0162694
0.0194887
0.0703463
-0.0119848
0.0372702
0.0153126
0.00600488
0.0300829
0.0814054

