# vtk DataFile Version 2.0
FEM, Created by Wutzow
ASCII
DATASET UNSTRUCTURED_GRID
POINTS 484 Float64
0 0 0
0.066 0 0
0.0811353 1.99418 0
0.0147649 1.99902 0
0.0221 0 0
0.0442 0 0
0.066287 0.0499309 0
0.0662932 0.0998632 0
0.0663035 0.149798 0
0.0663123 0.199734 0
0.0663171 0.249672 0
0.0663152 0.299612 0
0.0663039 0.349554 0
0.0662808 0.399496 0
0.0662434 0.449441 0
0.0661895 0.499386 0
0.0661169 0.549332 0
0.0660241 0.599279 0
0.0659095 0.649227 0
0.0657723 0.699175 0
0.0656119 0.749122 0
0.0654286 0.799069 0
0.0652235 0.849014 0
0.0649985 0.898957 0
0.0647567 0.948897 0
0.0645025 0.998833 0
0.0642419 1.04876 0
0.0639825 1.09869 0
0.0637338 1.14861 0
0.0635072 1.19852 0
0.0633162 1.24842 0
0.0631765 1.2983 0
0.0631062 1.34818 0
0.0631257 1.39804 0
0.0632583 1.44788 0
0.0635306 1.4977 0
0.0639721 1.5475 0
0.0646153 1.59728 0
0.0654953 1.64702 0
0.0666483 1.69674 0
0.0681104 1.74642 0
0.0699146 1.79608 0
0.0720888 1.8457 0
0.0746526 1.89529 0
0.0776073 1.94486 0
0.0662297 0.0166031 0
0.0662899 0.033265 0
0.0662872 0.066575 0
0.0662897 0.0832189 0
0.0662966 0.116508 0
0.0663001 0.133153 0
0.0663067 0.166443 0
0.0663097 0.183089 0
0.0663145 0.21638 0
0.0663161 0.233026 0
0.0663173 0.266319 0
0.0663167 0.282965 0
0.0663126 0.316259 0
0.0663089 0.332906 0
0.0662977 0.366201 0
0.06629 0.382849 0
0.06627 0.416144 0
0.0662576 0.432792 0
0.0662274 0.466089 0
0.0662094 0.482737 0
0.0661674 0.516035 0
0.0661433 0.532683 0
0.0660883 0.565981 0
0.0660574 0.58263 0
0.0659884 0.615929 0
0.0659502 0.632578 0
0.0658663 0.665876 0
0.0658206 0.682526 0
0.0657214 0.715824 0
0.0656679 0.732473 0
0.0655533 0.765771 0
0.0654922 0.78242 0
0.0653626 0.815717 0
0.0652942 0.832366 0
0.0651506 0.865662 0
0.0650755 0.88231 0
0.0649195 0.915604 0
0.0648389 0.932251 0
0.0646731 0.965543 0
0.0645883 0.982189 0
0.064416 1.01548 0
0.0643291 1.03212 0
0.0641549 1.06541 0
0.0640683 1.08205 0
0.0638979 1.11533 0
0.0638149 1.13197 0
0.0636552 1.16525 0
0.0635795 1.18188 0
0.0634389 1.21515 0
0.063375 1.23178 0
0.0632631 1.26505 0
0.0632163 1.28168 0
0.0631444 1.31493 0
0.0631207 1.33156 0
0.0631016 1.3648 0
0.0631078 1.38142 0
0.0631561 1.41465 0
0.0632 1.43127 0
0.0633322 1.46449 0
0.0634226 1.4811 0
0.0636575 1.5143 0
0.0638042 1.5309 0
0.0641624 1.5641 0
0.0643764 1.58069 0
0.0648806 1.61386 0
0.0651734 1.63044 0
0.0658475 1.6636 0
0.0662314 1.68017 0
0.0670996 1.7133 0
0.0675866 1.72987 0
0.0686722 1.76298 0
0.0692733 1.77953 0
0.0705971 1.81262 0
0.0713216 1.82916 0
0.0728995 1.86223 0
0.073754 1.87876 0
0.0755954 1.91182 0
0.0765808 1.92834 0
0.0786562 1.96136 0
0.0797997 1.97781 0
0.0589852 1.99606 0
0.0368525 1.99759 0
0.0114556 1.94907 0
0.00845539 1.89898 0
0.00586494 1.84886 0
0.00366844 1.79873 0
0.00184681 1.74861 0
0.000371805 1.69849 0
-0.000790457 1.64838 0
-0.00167662 1.5983 0
-0.00232375 1.54823 0
-0.00276752 1.49818 0
-0.00304101 1.44815 0
-0.0031742 1.39814 0
-0.00319379 1.34815 0
-0.0031233 1.29817 0
-0.00298341 1.2482 0
-0.00279221 1.19824 0
-0.00256543 1.14829 0
-0.00231661 1.09835 0
-0.00205717 1.04842 0
-0.0017966 0.998493 0
-0.00154251 0.948569 0
-0.00130081 0.898648 0
-0.0010759 0.848729 0
-0.00087088 0.798811 0
-0.000687714 0.748894 0
-0.000527426 0.698977 0
-0.000390246 0.64906 0
-0.000275747 0.599142 0
-0.000182963 0.549222 0
-0.000110489 0.499302 0
-5.65724e-05 0.44938 0
-1.91798e-05 0.399456 0
3.93513e-06 0.34953 0
1.51835e-05 0.299603 0
1.70992e-05 0.249674 0
1.23016e-05 0.199743 0
3.4612e-06 0.14981 0
-6.49126e-06 0.0998753 0
-1.81695e-05 0.0499458 0
0.0136692 1.9824 0
0.0125523 1.96575 0
0.0104075 1.93238 0
0.00940817 1.91568 0
0.00754743 1.88227 0
0.00668403 1.86557 0
0.00508971 1.83215 0
0.00435779 1.81544 0
0.00302081 1.78203 0
0.00241395 1.76532 0
0.00131821 1.7319 0
0.00082695 1.71519 0
-4.85791e-05 1.68179 0
-0.000435552 1.66508 0
-0.00111467 1.63169 0
-0.00140961 1.61499 0
-0.00191708 1.58161 0
-0.00213236 1.56492 0
-0.00249257 1.53155 0
-0.00264009 1.51486 0
-0.00287604 1.4815 0
-0.00296684 1.46483 0
-0.0030996 1.43148 0
-0.00314368 1.41481 0
-0.00319212 1.38148 0
-0.00319837 1.36481 0
-0.00317921 1.33149 0
-0.00315547 1.31483 0
-0.00308343 1.28151 0
-0.00303659 1.26485 0
-0.00292455 1.23155 0
-0.00286063 1.21489 0
-0.00271986 1.18159 0
-0.00264411 1.16494 0
-0.00248433 1.13165 0
-0.00240125 1.115 0
-0.0022308 1.08171 0
-0.00214421 1.06506 0
-0.00197003 1.03178 0
-0.00188308 1.01514 0
-0.00171086 0.981851 0
-0.00162609 0.96521 0
-0.00146032 0.931928 0
-0.0013797 0.915288 0
-0.00122379 0.882008 0
-0.00114879 0.865368 0
-0.00100523 0.83209 0
-0.000936872 0.81545 0
-0.000807328 0.782172 0
-0.000746264 0.765533 0
-0.000631718 0.732255 0
-0.000578289 0.715616 0
-0.000479142 0.682338 0
-0.000433423 0.665699 0
-0.000349598 0.632421 0
-0.000311447 0.615781 0
-0.000242469 0.582502 0
-0.00021156 0.565862 0
-0.000156629 0.532582 0
-0.000132495 0.515942 0
-9.05509e-05 0.482661 0
-7.26057e-05 0.46602 0
-4.23792e-05 0.432739 0
-2.99444e-05 0.416097 0
-1.00048e-05 0.382814 0
-2.3309e-06 0.366172 0
8.87981e-06 0.332888 0
1.25968e-05 0.316246 0
1.6731e-05 0.28296 0
1.73363e-05 0.266317 0
1.61146e-05 0.23303 0
1.44817e-05 0.216387 0
9.67005e-06 0.183099 0
6.68904e-06 0.166455 0
8.59725e-08 0.133165 0
-3.28644e-06 0.11652 0
-9.31745e-06 0.0832309 0
-1.27505e-05 0.0665875 0
-2.26708e-05 0.0332913 0
-1.73395e-05 0.016641 0
0.0441719 0.0166598 0
0.0220845 0.0332877 0
0.0220852 0.0166447 0
0.0441842 0.0499333 0
0.022081 0.0499333 0
0.0441846 0.0332958 0
0.0441867 0.0665778 0
0.02209 0.0832262 0
0.0220863 0.0665802 0
0.0441932 0.0998674 0
0.0220933 0.0998713 0
0.0441898 0.0832226 0
0.0441966 0.116512 0
0.0221001 0.133161 0
0.0220967 0.116516 0
0.0442035 0.149802 0
0.0221035 0.149806 0
0.0442001 0.133157 0
0.0442067 0.166447 0
0.0221097 0.183095 0
0.0221067 0.166451 0
0.0442123 0.199737 0
0.0221123 0.19974 0
0.0442097 0.183092 0
0.0442145 0.216382 0
0.0221161 0.233029 0
0.0221145 0.216385 0
0.0442171 0.249673 0
0.0221171 0.249673 0
0.0442161 0.233028 0
0.0442173 0.266318 0
0.0221167 0.282962 0
0.0221173 0.266318 0
0.0442152 0.299609 0
0.0221152 0.299606 0
0.0442167 0.282964 0
0.0442126 0.316255 0
0.0221089 0.332894 0
0.0221126 0.31625 0
0.0442039 0.349546 0
0.0221039 0.349538 0
0.0442089 0.3329 0
0.0441977 0.366192 0
0.02209 0.382826 0
0.0220977 0.366182 0
0.0441808 0.399483 0
0.0220808 0.399469 0
0.04419 0.382837 0
0.04417 0.416129 0
0.0220576 0.432756 0
0.02207 0.416113 0
0.0441434 0.44942 0
0.0220434 0.4494 0
0.0441576 0.432774 0
0.0441274 0.466066 0
0.0220094 0.482687 0
0.0220274 0.466043 0
0.0440895 0.499358 0
0.0219895 0.49933 0
0.0441094 0.482712 0
0.0440675 0.516004 0
0.0219433 0.532616 0
0.0219675 0.515973 0
0.044017 0.549296 0
0.021917 0.549259 0
0.0440433 0.53265 0
0.0439884 0.565942 0
0.0218575 0.582545 0
0.0218884 0.565902 0
0.0439242 0.599234 0
0.0218242 0.599188 0
0.0439574 0.582588 0
0.0438884 0.61588 0
0.0217503 0.632473 0
0.0217885 0.61583 0
0.0438096 0.649171 0
0.0217097 0.649116 0
0.0438503 0.632525 0
0.0437664 0.665817 0
0.0216208 0.682401 0
0.0216665 0.665758 0
0.0436724 0.699109 0
0.0215725 0.699043 0
0.0437207 0.682463 0
0.0436215 0.715755 0
0.0214682 0.732328 0
0.0215216 0.715686 0
0.043512 0.749046 0
0.0214121 0.74897 0
0.043568 0.732401 0
0.0434534 0.765692 0
0.0212925 0.782255 0
0.0213536 0.765613 0
0.0433288 0.798983 0
0.0212289 0.798897 0
0.0433924 0.782338 0
0.0432628 0.815628 0
0.0210946 0.832182 0
0.0211629 0.81554 0
0.0431237 0.848919 0
0.0210239 0.848824 0
0.0431944 0.832274 0
0.0430508 0.865564 0
0.020876 0.882109 0
0.020951 0.865466 0
0.0428987 0.898854 0
0.0207989 0.898751 0
0.0429757 0.882209 0
0.0428198 0.915499 0
0.0206394 0.932036 0
0.02072 0.915393 0
0.0426569 0.948788 0
0.0205572 0.948678 0
0.0427391 0.932143 0
0.0425733 0.965432 0
0.0203888 0.981964 0
0.0204736 0.965321 0
0.0424028 0.99872 0
0.0203031 0.998607 0
0.0424886 0.982076 0
0.0423163 1.01536 0
0.0201297 1.03189 0
0.0202166 1.01525 0
0.0421422 1.04865 0
0.0200425 1.04854 0
0.0422294 1.03201 0
0.0420552 1.06529 0
0.0198689 1.08182 0
0.0199555 1.06518 0
0.0418828 1.09858 0
0.0197831 1.09847 0
0.0419686 1.08194 0
0.0417982 1.11522 0
0.0196154 1.13175 0
0.0196985 1.11511 0
0.0416341 1.1485 0
0.0195343 1.1484 0
0.0417151 1.13186 0
0.0415554 1.16514 0
0.0193799 1.18169 0
0.0194556 1.16504 0
0.0414074 1.19842 0
0.0193076 1.19833 0
0.0414797 1.18178 0
0.041339 1.21506 0
0.0191753 1.23163 0
0.0192392 1.21498 0
0.0412163 1.24834 0
0.0191165 1.24827 0
0.0412751 1.2317 0
0.0411632 1.26498 0
0.0190165 1.28157 0
0.0190633 1.26492 0
0.0410766 1.29826 0
0.0189766 1.29821 0
0.0411164 1.28162 0
0.0410444 1.3149 0
0.0189207 1.33151 0
0.0189445 1.31486 0
0.0410062 1.34817 0
0.0189062 1.34816 0
0.0410207 1.33153 0
0.0410016 1.3648 0
0.0189078 1.38146 0
0.0189016 1.36481 0
0.0410257 1.39807 0
0.0189257 1.39811 0
0.0410078 1.38144 0
0.0410561 1.41471 0
0.0190002 1.43141 0
0.0189562 1.41476 0
0.0411585 1.44797 0
0.0190588 1.44806 0
0.0411001 1.43134 0
0.0412325 1.4646 0
0.0192235 1.48137 0
0.0191328 1.46472 0
0.0414312 1.49786 0
0.0193319 1.49802 0
0.041323 1.48123 0
0.0415582 1.51449 0
0.0196064 1.53133 0
0.0194591 1.51468 0
0.0418734 1.54774 0
0.0197749 1.54799 0
0.0417052 1.53112 0
0.0420641 1.56437 0
0.0201808 1.5813 0
0.0199659 1.56464 0
0.042518 1.59762 0
0.0204207 1.59796 0
0.0422785 1.58099 0
0.0427838 1.61424 0
0.0209814 1.63127 0
0.0206871 1.61462 0
0.0434 1.64748 0
0.0213048 1.64793 0
0.0430773 1.63086 0
0.0437531 1.66409 0
0.0220448 1.68125 0
0.0216588 1.66459 0
0.0445561 1.69732 0
0.0224641 1.69791 0
0.044138 1.68071 0
0.0450087 1.71393 0
0.0234077 1.73122 0
0.0229179 1.71456 0
0.0460225 1.74715 0
0.0239347 1.74788 0
0.0454971 1.73054 0
0.0465861 1.76376 0
0.0251051 1.78119 0
0.0245002 1.76454 0
0.0478325 1.79696 0
0.0257506 1.79785 0
0.0471891 1.78036 0
0.0485173 1.81356 0
0.0271671 1.83116 0
0.0264377 1.8145 0
0.0500142 1.84675 0
0.0279397 1.84781 0
0.0492443 1.83016 0
0.0508277 1.86334 0
0.0296164 1.8811 0
0.028756 1.86446 0
0.052587 1.89652 0
0.0305212 1.89775 0
0.0516852 1.87993 0
0.053533 1.9131 0
0.0324656 1.93103 0
0.0314707 1.91439 0
0.0555541 1.94626 0
0.0335064 1.94767 0
0.0545226 1.92969 0
0.0566317 1.96285 0
0.0357214 1.98094 0
0.0345967 1.9643 0
0.0577698 1.97945 0

CELLS 80 880
10 0 1 165 4 5 246 247 244 245 248
10 165 1 6 247 246 45 46 249 250 251
10 165 6 164 250 249 252 253 242 243 254
10 164 6 7 253 252 47 48 255 256 257
10 164 7 163 256 255 258 259 240 241 260
10 163 7 8 259 258 49 50 261 262 263
10 163 8 162 262 261 264 265 238 239 266
10 162 8 9 265 264 51 52 267 268 269
10 162 9 161 268 267 270 271 236 237 272
10 161 9 10 271 270 53 54 273 274 275
10 161 10 160 274 273 276 277 234 235 278
10 160 10 11 277 276 55 56 279 280 281
10 160 11 159 280 279 282 283 232 233 284
10 159 11 12 283 282 57 58 285 286 287
10 159 12 158 286 285 288 289 230 231 290
10 158 12 13 289 288 59 60 291 292 293
10 158 13 157 292 291 294 295 228 229 296
10 157 13 14 295 294 61 62 297 298 299
10 157 14 156 298 297 300 301 226 227 302
10 156 14 15 301 300 63 64 303 304 305
10 156 15 155 304 303 306 307 224 225 308
10 155 15 16 307 306 65 66 309 310 311
10 155 16 154 310 309 312 313 222 223 314
10 154 16 17 313 312 67 68 315 316 317
10 154 17 153 316 315 318 319 220 221 320
10 153 17 18 319 318 69 70 321 322 323
10 153 18 152 322 321 324 325 218 219 326
10 152 18 19 325 324 71 72 327 328 329
10 152 19 151 328 327 330 331 216 217 332
10 151 19 20 331 330 73 74 333 334 335
10 151 20 150 334 333 336 337 214 215 338
10 150 20 21 337 336 75 76 339 340 341
10 150 21 149 340 339 342 343 212 213 344
10 149 21 22 343 342 77 78 345 346 347
10 149 22 148 346 345 348 349 210 211 350
10 148 22 23 349 348 79 80 351 352 353
10 148 23 147 352 351 354 355 208 209 356
10 147 23 24 355 354 81 82 357 358 359
10 147 24 146 358 357 360 361 206 207 362
10 146 24 25 361 360 83 84 363 364 365
10 146 25 145 364 363 366 367 204 205 368
10 145 25 26 367 366 85 86 369 370 371
10 145 26 144 370 369 372 373 202 203 374
10 144 26 27 373 372 87 88 375 376 377
10 144 27 143 376 375 378 379 200 201 380
10 143 27 28 379 378 89 90 381 382 383
10 143 28 142 382 381 384 385 198 199 386
10 142 28 29 385 384 91 92 387 388 389
10 142 29 141 388 387 390 391 196 197 392
10 141 29 30 391 390 93 94 393 394 395
10 141 30 140 394 393 396 397 194 195 398
10 140 30 31 397 396 95 96 399 400 401
10 140 31 139 400 399 402 403 192 193 404
10 139 31 32 403 402 97 98 405 406 407
10 139 32 138 406 405 408 409 190 191 410
10 138 32 33 409 408 99 100 411 412 413
10 138 33 137 412 411 414 415 188 189 416
10 137 33 34 415 414 101 102 417 418 419
10 137 34 136 418 417 420 421 186 187 422
10 136 34 35 421 420 103 104 423 424 425
10 136 35 135 424 423 426 427 184 185 428
10 135 35 36 427 426 105 106 429 430 431
10 135 36 134 430 429 432 433 182 183 434
10 134 36 37 433 432 107 108 435 436 437
10 134 37 133 436 435 438 439 180 181 440
10 133 37 38 439 438 109 110 441 442 443
10 133 38 132 442 441 444 445 178 179 446
10 132 38 39 445 444 111 112 447 448 449
10 132 39 131 448 447 450 451 176 177 452
10 131 39 40 451 450 113 114 453 454 455
10 131 40 130 454 453 456 457 174 175 458
10 130 40 41 457 456 115 116 459 460 461
10 130 41 129 460 459 462 463 172 173 464
10 129 41 42 463 462 117 118 465 466 467
10 129 42 128 466 465 468 469 170 171 470
10 128 42 43 469 468 119 120 471 472 473
10 128 43 127 472 471 474 475 168 169 476
10 127 43 44 475 474 121 122 477 478 479
10 127 44 3 478 477 480 481 166 167 482
10 3 44 2 481 480 123 124 125 126 483

CELL_TYPES 80
69
69
69
69
69
69
69
69
69
69
69
69
69
69
69
69
69
69
69
69
69
69
69
69
69
69
69
69
69
69
69
69
69
69
69
69
69
69
69
69
69
69
69
69
69
69
69
69
69
69
69
69
69
69
69
69
69
69
69
69
69
69
69
69
69
69
69
69
69
69
69
69
69
69
69
69
69
69
69
69

CELL_DATA 80
POINT_DATA 484
VECTORS Y Float64
0 0 0.0
0.066 0 0.0
0.0811353 1.99418 0.0
0.0147649 1.99902 0.0
0.0221 0 0.0
0.0442 0 0.0
0.066287 0.0499309 0.0
0.0662932 0.0998632 0.0
0.0663035 0.149798 0.0
0.0663123 0.199734 0.0
0.0663171 0.249672 0.0
0.0663152 0.299612 0.0
0.0663039 0.349554 0.0
0.0662808 0.399496 0.0
0.0662434 0.449441 0.0
0.0661895 0.499386 0.0
0.0661169 0.549332 0.0
0.0660241 0.599279 0.0
0.0659095 0.649227 0.0
0.0657723 0.699175 0.0
0.0656119 0.749122 0.0
0.0654286 0.799069 0.0
0.0652235 0.849014 0.0
0.0649985 0.898957 0.0
0.0647567 0.948897 0.0
0.0645025 0.998833 0.0
0.0642419 1.04876 0.0
0.0639825 1.09869 0.0
0.0637338 1.14861 0.0
0.0635072 1.19852 0.0
0.0633162 1.24842 0.0
0.0631765 1.2983 0.0
0.0631062 1.34818 0.0
0.0631257 1.39804 0.0
0.0632583 1.44788 0.0
0.0635306 1.4977 0.0
0.0639721 1.5475 0.0
0.0646153 1.59728 0.0
0.0654953 1.64702 0.0
0.0666483 1.69674 0.0
0.0681104 1.74642 0.0
0.0699146 1.79608 0.0
0.0720888 1.8457 0.0
0.0746526 1.89529 0.0
0.0776073 1.94486 0.0
0.0662297 0.0166031 0.0
0.0662899 0.033265 0.0
0.0662872 0.066575 0.0
0.0662897 0.0832189 0.0
0.0662966 0.116508 0.0
0.0663001 0.133153 0.0
0.0663067 0.166443 0.0
0.0663097 0.183089 0.0
0.0663145 0.21638 0.0
0.0663161 0.233026 0.0
0.0663173 0.266319 0.0
0.0663167 0.282965 0.0
0.0663126 0.316259 0.0
0.0663089 0.332906 0.0
0.0662977 0.366201 0.0
0.06629 0.382849 0.0
0.06627 0.416144 0.0
0.0662576 0.432792 0.0
0.0662274 0.466089 0.0
0.0662094 0.482737 0.0
0.0661674 0.516035 0.0
0.0661433 0.532683 0.0
0.0660883 0.565981 0.0
0.0660574 0.58263 0.0
0.0659884 0.615929 0.0
0.0659502 0.632578 0.0
0.0658663 0.665876 0.0
0.0658206 0.682526 0.0
0.0657214 0.715824 0.0
0.0656679 0.732473 0.0
0.0655533 0.765771 0.0
0.0654922 0.78242 0.0
0.0653626 0.815717 0.0
0.0652942 0.832366 0.0
0.0651506 0.865662 0.0
0.0650755 0.88231 0.0
0.0649195 0.915604 0.0
0.0648389 0.932251 0.0
0.0646731 0.965543 0.0
0.0645883 0.982189 0.0
0.064416 1.01548 0.0
0.0643291 1.03212 0.0
0.0641549 1.06541 0.0
0.0640683 1.08205 0.0
0.0638979 1.11533 0.0
0.0638149 1.13197 0.0
0.0636552 1.16525 0.0
0.0635795 1.18188 0.0
0.0634389 1.21515 0.0
0.063375 1.23178 0.0
0.0632631 1.26505 0.0
0.0632163 1.28168 0.0
0.0631444 1.31493 0.0
0.0631207 1.33156 0.0
0.0631016 1.3648 0.0
0.0631078 1.38142 0.0
0.0631561 1.41465 0.0
0.0632 1.43127 0.0
0.0633322 1.46449 0.0
0.0634226 1.4811 0.0
0.0636575 1.5143 0.0
0.0638042 1.5309 0.0
0.0641624 1.5641 0.0
0.0643764 1.58069 0.0
0.0648806 1.61386 0.0
0.0651734 1.63044 0.0
0.0658475 1.6636 0.0
0.0662314 1.68017 0.0
0.0670996 1.7133 0.0
0.0675866 1.72987 0.0
0.0686722 1.76298 0.0
0.0692733 1.77953 0.0
0.0705971 1.81262 0.0
0.0713216 1.82916 0.0
0.0728995 1.86223 0.0
0.073754 1.87876 0.0
0.0755954 1.91182 0.0
0.0765808 1.92834 0.0
0.0786562 1.96136 0.0
0.0797997 1.97781 0.0
0.0589852 1.99606 0.0
0.0368525 1.99759 0.0
0.0114556 1.94907 0.0
0.00845539 1.89898 0.0
0.00586494 1.84886 0.0
0.00366844 1.79873 0.0
0.00184681 1.74861 0.0
0.000371805 1.69849 0.0
-0.000790457 1.64838 0.0
-0.00167662 1.5983 0.0
-0.00232375 1.54823 0.0
-0.00276752 1.49818 0.0
-0.00304101 1.44815 0.0
-0.0031742 1.39814 0.0
-0.00319379 1.34815 0.0
-0.0031233 1.29817 0.0
-0.00298341 1.2482 0.0
-0.00279221 1.19824 0.0
-0.00256543 1.14829 0.0
-0.00231661 1.09835 0.0
-0.00205717 1.04842 0.0
-0.0017966 0.998493 0.0
-0.00154251 0.948569 0.0
-0.00130081 0.898648 0.0
-0.0010759 0.848729 0.0
-0.00087088 0.798811 0.0
-0.000687714 0.748894 0.0
-0.000527426 0.698977 0.0
-0.000390246 0.64906 0.0
-0.000275747 0.599142 0.0
-0.000182963 0.549222 0.0
-0.000110489 0.499302 0.0
-5.65724e-05 0.44938 0.0
-1.91798e-05 0.399456 0.0
3.93513e-06 0.34953 0.0
1.51835e-05 0.299603 0.0
1.70992e-05 0.249674 0.0
1.23016e-05 0.199743 0.0
3.4612e-06 0.14981 0.0
-6.49126e-06 0.0998753 0.0
-1.81695e-05 0.0499458 0.0
0.0136692 1.9824 0.0
0.0125523 1.96575 0.0
0.0104075 1.93238 0.0
0.00940817 1.91568 0.0
0.00754743 1.88227 0.0
0.00668403 1.86557 0.0
0.00508971 1.83215 0.0
0.00435779 1.81544 0.0
0.00302081 1.78203 0.0
0.00241395 1.76532 0.0
0.00131821 1.7319 0.0
0.00082695 1.71519 0.0
-4.85791e-05 1.68179 0.0
-0.000435552 1.66508 0.0
-0.00111467 1.63169 0.0
-0.00140961 1.61499 0.0
-0.00191708 1.58161 0.0
-0.00213236 1.56492 0.0
-0.00249257 1.53155 0.0
-0.00264009 1.51486 0.0
-0.00287604 1.4815 0.0
-0.00296684 1.46483 0.0
-0.0030996 1.43148 0.0
-0.00314368 1.41481 0.0
-0.00319212 1.38148 0.0
-0.00319837 1.36481 0.0
-0.00317921 1.33149 0.0
-0.00315547 1.31483 0.0
-0.00308343 1.28151 0.0
-0.00303659 1.26485 0.0
-0.00292455 1.23155 0.0
-0.00286063 1.21489 0.0
-0.00271986 1.18159 0.0
-0.00264411 1.16494 0.0
-0.00248433 1.13165 0.0
-0.00240125 1.115 0.0
-0.0022308 1.08171 0.0
-0.00214421 1.06506 0.0
-0.00197003 1.03178 0.0
-0.00188308 1.01514 0.0
-0.00171086 0.981851 0.0
-0.00162609 0.96521 0.0
-0.00146032 0.931928 0.0
-0.0013797 0.915288 0.0
-0.00122379 0.882008 0.0
-0.00114879 0.865368 0.0
-0.00100523 0.83209 0.0
-0.000936872 0.81545 0.0
-0.000807328 0.782172 0.0
-0.000746264 0.765533 0.0
-0.000631718 0.732255 0.0
-0.000578289 0.715616 0.0
-0.000479142 0.682338 0.0
-0.000433423 0.665699 0.0
-0.000349598 0.632421 0.0
-0.000311447 0.615781 0.0
-0.000242469 0.582502 0.0
-0.00021156 0.565862 0.0
-0.000156629 0.532582 0.0
-0.000132495 0.515942 0.0
-9.05509e-05 0.482661 0.0
-7.26057e-05 0.46602 0.0
-4.23792e-05 0.432739 0.0
-2.99444e-05 0.416097 0.0
-1.00048e-05 0.382814 0.0
-2.3309e-06 0.366172 0.0
8.87981e-06 0.332888 0.0
1.25968e-05 0.316246 0.0
1.6731e-05 0.28296 0.0
1.73363e-05 0.266317 0.0
1.61146e-05 0.23303 0.0
1.44817e-05 0.216387 0.0
9.67005e-06 0.183099 0.0
6.68904e-06 0.166455 0.0
8.59725e-08 0.133165 0.0
-3.28644e-06 0.11652 0.0
-9.31745e-06 0.0832309 0.0
-1.27505e-05 0.0665875 0.0
-2.26708e-05 0.0332913 0.0
-1.73395e-05 0.016641 0.0
0.0441719 0.0166598 0.0
0.0220845 0.0332877 0.0
0.0220852 0.0166447 0.0
0.0441842 0.0499333 0.0
0.022081 0.0499333 0.0
0.0441846 0.0332958 0.0
0.0441867 0.0665778 0.0
0.02209 0.0832262 0.0
0.0220863 0.0665802 0.0
0.0441932 0.0998674 0.0
0.0220933 0.0998713 0.0
0.0441898 0.0832226 0.0
0.0441966 0.116512 0.0
0.0221001 0.133161 0.0
0.0220967 0.116516 0.0
0.0442035 0.149802 0.0
0.0221035 0.149806 0.0
0.0442001 0.133157 0.0
0.0442067 0.166447 0.0
0.0221097 0.183095 0.0
0.0221067 0.166451 0.0
0.0442123 0.199737 0.0
0.0221123 0.19974 0.0
0.0442097 0.183092 0.0
0.0442145 0.216382 0.0
0.0221161 0.233029 0.0
0.0221145 0.216385 0.0
0.0442171 0.249673 0.0
0.0221171 0.249673 0.0
0.0442161 0.233028 0.0
0.0442173 0.266318 0.0
0.0221167 0.282962 0.0
0.0221173 0.266318 0.0
0.0442152 0.299609 0.0
0.0221152 0.299606 0.0
0.0442167 0.282964 0.0
0.0442126 0.316255 0.0
0.0221089 0.332894 0.0
0.0221126 0.31625 0.0
0.0442039 0.349546 0.0
0.0221039 0.349538 0.0
0.0442089 0.3329 0.0
0.0441977 0.366192 0.0
0.02209 0.382826 0.0
0.0220977 0.366182 0.0
0.0441808 0.399483 0.0
0.0220808 0.399469 0.0
0.04419 0.382837 0.0
0.04417 0.416129 0.0
0.0220576 0.432756 0.0
0.02207 0.416113 0.0
0.0441434 0.44942 0.0
0.0220434 0.4494 0.0
0.0441576 0.432774 0.0
0.0441274 0.466066 0.0
0.0220094 0.482687 0.0
0.0220274 0.466043 0.0
0.0440895 0.499358 0.0
0.0219895 0.49933 0.0
0.0441094 0.482712 0.0
0.0440675 0.516004 0.0
0.0219433 0.532616 0.0
0.0219675 0.515973 0.0
0.044017 0.549296 0.0
0.021917 0.549259 0.0
0.0440433 0.53265 0.0
0.0439884 0.565942 0.0
0.0218575 0.582545 0.0
0.0218884 0.565902 0.0
0.0439242 0.599234 0.0
0.0218242 0.599188 0.0
0.0439574 0.582588 0.0
0.0438884 0.61588 0.0
0.0217503 0.632473 0.0
0.0217885 0.61583 0.0
0.0438096 0.649171 0.0
0.0217097 0.649116 0.0
0.0438503 0.632525 0.0
0.0437664 0.665817 0.0
0.0216208 0.682401 0.0
0.0216665 0.665758 0.0
0.0436724 0.699109 0.0
0.0215725 0.699043 0.0
0.0437207 0.682463 0.0
0.0436215 0.715755 0.0
0.0214682 0.732328 0.0
0.0215216 0.715686 0.0
0.043512 0.749046 0.0
0.0214121 0.74897 0.0
0.043568 0.732401 0.0
0.0434534 0.765692 0.0
0.0212925 0.782255 0.0
0.0213536 0.765613 0.0
0.0433288 0.798983 0.0
0.0212289 0.798897 0.0
0.0433924 0.782338 0.0
0.0432628 0.815628 0.0
0.0210946 0.832182 0.0
0.0211629 0.81554 0.0
0.0431237 0.848919 0.0
0.0210239 0.848824 0.0
0.0431944 0.832274 0.0
0.0430508 0.865564 0.0
0.020876 0.882109 0.0
0.020951 0.865466 0.0
0.0428987 0.898854 0.0
0.0207989 0.898751 0.0
0.0429757 0.882209 0.0
0.0428198 0.915499 0.0
0.0206394 0.932036 0.0
0.02072 0.915393 0.0
0.0426569 0.948788 0.0
0.0205572 0.948678 0.0
0.0427391 0.932143 0.0
0.0425733 0.965432 0.0
0.0203888 0.981964 0.0
0.0204736 0.965321 0.0
0.0424028 0.99872 0.0
0.0203031 0.998607 0.0
0.0424886 0.982076 0.0
0.0423163 1.01536 0.0
0.0201297 1.03189 0.0
0.0202166 1.01525 0.0
0.0421422 1.04865 0.0
0.0200425 1.04854 0.0
0.0422294 1.03201 0.0
0.0420552 1.06529 0.0
0.0198689 1.08182 0.0
0.0199555 1.06518 0.0
0.0418828 1.09858 0.0
0.0197831 1.09847 0.0
0.0419686 1.08194 0.0
0.0417982 1.11522 0.0
0.0196154 1.13175 0.0
0.0196985 1.11511 0.0
0.0416341 1.1485 0.0
0.0195343 1.1484 0.0
0.0417151 1.13186 0.0
0.0415554 1.16514 0.0
0.0193799 1.18169 0.0
0.0194556 1.16504 0.0
0.0414074 1.19842 0.0
0.0193076 1.19833 0.0
0.0414797 1.18178 0.0
0.041339 1.21506 0.0
0.0191753 1.23163 0.0
0.0192392 1.21498 0.0
0.0412163 1.24834 0.0
0.0191165 1.24827 0.0
0.0412751 1.2317 0.0
0.0411632 1.26498 0.0
0.0190165 1.28157 0.0
0.0190633 1.26492 0.0
0.0410766 1.29826 0.0
0.0189766 1.29821 0.0
0.0411164 1.28162 0.0
0.0410444 1.3149 0.0
0.0189207 1.33151 0.0
0.0189445 1.31486 0.0
0.0410062 1.34817 0.0
0.0189062 1.34816 0.0
0.0410207 1.33153 0.0
0.0410016 1.3648 0.0
0.0189078 1.38146 0.0
0.0189016 1.36481 0.0
0.0410257 1.39807 0.0
0.0189257 1.39811 0.0
0.0410078 1.38144 0.0
0.0410561 1.41471 0.0
0.0190002 1.43141 0.0
0.0189562 1.41476 0.0
0.0411585 1.44797 0.0
0.0190588 1.44806 0.0
0.0411001 1.43134 0.0
0.0412325 1.4646 0.0
0.0192235 1.48137 0.0
0.0191328 1.46472 0.0
0.0414312 1.49786 0.0
0.0193319 1.49802 0.0
0.041323 1.48123 0.0
0.0415582 1.51449 0.0
0.0196064 1.53133 0.0
0.0194591 1.51468 0.0
0.0418734 1.54774 0.0
0.0197749 1.54799 0.0
0.0417052 1.53112 0.0
0.0420641 1.56437 0.0
0.0201808 1.5813 0.0
0.0199659 1.56464 0.0
0.042518 1.59762 0.0
0.0204207 1.59796 0.0
0.0422785 1.58099 0.0
0.0427838 1.61424 0.0
0.0209814 1.63127 0.0
0.0206871 1.61462 0.0
0.0434 1.64748 0.0
0.0213048 1.64793 0.0
0.0430773 1.63086 0.0
0.0437531 1.66409 0.0
0.0220448 1.68125 0.0
0.0216588 1.66459 0.0
0.0445561 1.69732 0.0
0.0224641 1.69791 0.0
0.044138 1.68071 0.0
0.0450087 1.71393 0.0
0.0234077 1.73122 0.0
0.0229179 1.71456 0.0
0.0460225 1.74715 0.0
0.0239347 1.74788 0.0
0.0454971 1.73054 0.0
0.0465861 1.76376 0.0
0.0251051 1.78119 0.0
0.0245002 1.76454 0.0
0.0478325 1.79696 0.0
0.0257506 1.79785 0.0
0.0471891 1.78036 0.0
0.0485173 1.81356 0.0
0.0271671 1.83116 0.0
0.0264377 1.8145 0.0
0.0500142 1.84675 0.0
0.0279397 1.84781 0.0
0.0492443 1.83016 0.0
0.0508277 1.86334 0.0
0.0296164 1.8811 0.0
0.028756 1.86446 0.0
0.052587 1.89652 0.0
0.0305212 1.89775 0.0
0.0516852 1.87993 0.0
0.053533 1.9131 0.0
0.0324656 1.93103 0.0
0.0314707 1.91439 0.0
0.0555541 1.94626 0.0
0.0335064 1.94767 0.0
0.0545226 1.92969 0.0
0.0566317 1.96285 0.0
0.0357214 1.98094 0.0
0.0345967 1.9643 0.0
0.0577698 1.97945 0.0

CELL_DATA 80
POINT_DATA 484
VECTORS U Float64
0 0 0.0
-0.0003 0 0.0
0.0148353 -0.00581878 0.0
0.0147649 -0.00097902 0.0
0 0 0.0
0 0 0.0
-1.2984e-05 -6.91498e-05 0.0
-6.84916e-06 -0.000136831 0.0
3.46747e-06 -0.000202072 0.0
1.23014e-05 -0.000265643 0.0
1.70994e-05 -0.000327524 0.0
1.51831e-05 -0.00038776 0.0
3.93143e-06 -0.000446422 0.0
-1.9192e-05 -0.000503606 0.0
-5.66007e-05 -0.000559432 0.0
-0.000110544 -0.000614055 0.0
-0.000183055 -0.00066767 0.0
-0.000275892 -0.000720516 0.0
-0.000390459 -0.000772889 0.0
-0.000527723 -0.000825146 0.0
-0.000688109 -0.000877716 0.0
-0.000871382 -0.000931111 0.0
-0.00107651 -0.000985935 0.0
-0.00130153 -0.00104289 0.0
-0.00154332 -0.00110281 0.0
-0.00179748 -0.0011666 0.0
-0.00205806 -0.00123534 0.0
-0.00231745 -0.00131016 0.0
-0.00256618 -0.0013923 0.0
-0.00279279 -0.00148308 0.0
-0.00298378 -0.00158386 0.0
-0.00312346 -0.00169616 0.0
-0.00319382 -0.00182163 0.0
-0.00317434 -0.00196219 0.0
-0.00304165 -0.00212004 0.0
-0.00276937 -0.00229765 0.0
-0.00232792 -0.00249776 0.0
-0.00168469 -0.00272323 0.0
-0.000804705 -0.00297672 0.0
0.000348344 -0.00326053 0.0
0.00181038 -0.00357612 0.0
0.00361459 -0.00392395 0.0
0.00578881 -0.00430277 0.0
0.00835258 -0.00470928 0.0
0.0113073 -0.00513516 0.0
-7.03309e-05 -6.35498e-05 0.0
-1.00925e-05 -6.83567e-05 0.0
-1.2833e-05 -9.16514e-05 0.0
-1.03098e-05 -0.000114397 0.0
-3.37036e-06 -0.000158771 0.0
8.80638e-08 -0.000180513 0.0
6.69345e-06 -0.000223448 0.0
9.67086e-06 -0.000244639 0.0
1.4482e-05 -0.000286453 0.0
1.61136e-05 -0.000307079 0.0
1.7337e-05 -0.000347778 0.0
1.67296e-05 -0.000367856 0.0
1.25961e-05 -0.00040748 0.0
8.87564e-06 -0.000427034 0.0
-2.33646e-06 -0.000465637 0.0
-1.0016e-05 -0.000484698 0.0
-2.99604e-05 -0.000522352 0.0
-4.24039e-05 -0.00054096 0.0
-7.26403e-05 -0.000577757 0.0
-9.05981e-05 -0.000595964 0.0
-0.000132559 -0.00063202 0.0
-0.00015671 -0.00064989 0.0
-0.000211666 -0.000685349 0.0
-0.000242597 -0.000702962 0.0
-0.000311609 -0.000738 0.0
-0.00034979 -0.000755455 0.0
-0.000433659 -0.00079029 0.0
-0.000479411 -0.000807706 0.0
-0.000578612 -0.0008426 0.0
-0.000632081 -0.000860119 0.0
-0.000746689 -0.000895383 0.0
-0.000807797 -0.000913177 0.0
-0.000937407 -0.000949183 0.0
-0.00100581 -0.000967452 0.0
-0.00114944 -0.00100463 0.0
-0.00122449 -0.00102361 0.0
-0.00138045 -0.00106248 0.0
-0.00146111 -0.00108244 0.0
-0.00162693 -0.00112357 0.0
-0.00171172 -0.00114483 0.0
-0.00188396 -0.0011889 0.0
-0.00197093 -0.0012118 0.0
-0.00214509 -0.00125953 0.0
-0.00223167 -0.00128446 0.0
-0.00240207 -0.00133665 0.0
-0.00248512 -0.00136402 0.0
-0.00264479 -0.00142152 0.0
-0.0027205 -0.00145177 0.0
-0.00286113 -0.00151547 0.0
-0.002925 -0.00154905 0.0
-0.00303687 -0.00161992 0.0
-0.00308366 -0.00165734 0.0
-0.00315557 -0.00173641 0.0
-0.00317929 -0.00177822 0.0
-0.0031984 -0.00186669 0.0
-0.0031922 -0.00191352 0.0
-0.00314392 -0.00201275 0.0
-0.00310003 -0.00206534 0.0
-0.00296778 -0.00217689 0.0
-0.0028774 -0.00223606 0.0
-0.00264255 -0.0023617 0.0
-0.00249581 -0.00242837 0.0
-0.0021376 -0.00256995 0.0
-0.00192364 -0.00264508 0.0
-0.00141945 -0.00280447 0.0
-0.00112658 -0.00288894 0.0
-0.000452488 -0.00306785 0.0
-6.85848e-05 -0.00316243 0.0
0.000799645 -0.00336215 0.0
0.00128658 -0.00346733 0.0
0.00237225 -0.00368851 0.0
0.00297331 -0.00380446 0.0
0.00429705 -0.00404687 0.0
0.00502157 -0.00417316 0.0
0.00659947 -0.00443549 0.0
0.00745399 -0.00457105 0.0
0.00929538 -0.0048491 0.0
0.0102808 -0.00499098 0.0
0.0123562 -0.00530774 0.0
0.0134997 -0.00552644 0.0
0.0147852 -0.00393771 0.0
0.0147525 -0.00240883 0.0
0.0114556 -0.000925327 0.0
0.00845539 -0.00102215 0.0
0.00586494 -0.00113849 0.0
0.00366844 -0.00126542 0.0
0.00184681 -0.00139243 0.0
0.000371805 -0.00151123 0.0
-0.000790457 -0.00161582 0.0
-0.00167662 -0.00170264 0.0
-0.00232375 -0.0017699 0.0
-0.00276752 -0.00181737 0.0
-0.00304101 -0.00184584 0.0
-0.0031742 -0.00185673 0.0
-0.00319379 -0.00185169 0.0
-0.0031233 -0.00183245 0.0
-0.00298341 -0.00180068 0.0
-0.00279221 -0.00175799 0.0
-0.00256543 -0.00170587 0.0
-0.00231661 -0.00164578 0.0
-0.00205717 -0.00157912 0.0
-0.0017966 -0.00150716 0.0
-0.00154251 -0.00143113 0.0
-0.00130081 -0.00135209 0.0
-0.0010759 -0.00127099 0.0
-0.00087088 -0.00118863 0.0
-0.000687714 -0.00110568 0.0
-0.000527426 -0.00102269 0.0
-0.000390246 -0.000940126 0.0
-0.000275747 -0.000858353 0.0
-0.000182963 -0.000777665 0.0
-0.000110489 -0.000698293 0.0
-5.65724e-05 -0.000620415 0.0
-1.91798e-05 -0.000544167 0.0
3.93513e-06 -0.000469649 0.0
1.51835e-05 -0.000396928 0.0
1.70992e-05 -0.00032605 0.0
1.23016e-05 -0.000257038 0.0
3.4612e-06 -0.000189904 0.0
-6.49126e-06 -0.000124666 0.0
-1.81695e-05 -5.41879e-05 0.0
0.0136692 -0.000934359 0.0
0.0125523 -0.000915845 0.0
0.0104075 -0.000954105 0.0
0.00940817 -0.000986831 0.0
0.00754743 -0.00105906 0.0
0.00668403 -0.00109795 0.0
0.00508971 -0.00118018 0.0
0.00435779 -0.0012226 0.0
0.00302081 -0.0013082 0.0
0.00241395 -0.00135063 0.0
0.00131821 -0.00143326 0.0
0.00082695 -0.00147293 0.0
-4.85791e-05 -0.00154787 0.0
-0.000435552 -0.00158278 0.0
-0.00111467 -0.00164685 0.0
-0.00140961 -0.00167582 0.0
-0.00191708 -0.00172724 0.0
-0.00213236 -0.00174967 0.0
-0.00249257 -0.00178787 0.0
-0.00264009 -0.00180369 0.0
-0.00287604 -0.00182889 0.0
-0.00296684 -0.00183837 0.0