# vtk DataFile Version 2.0
FEM, Created by Wutzow
ASCII
DATASET UNSTRUCTURED_GRID
POINTS 484 Float64
0 0 0
10 -2.63881e-12 0
10 0.0178 0
0 0.0178 0
0.25 -7.08125e-19 0
0.5 2.68099e-18 0
0.75 4.92572e-19 0
1 -1.71359e-18 0
1.25 2.21806e-18 0
1.5 -2.32589e-18 0
1.75 -2.40782e-19 0
2 -3.2853e-19 0
2.25 -2.1566e-18 0
2.5 -8.33157e-19 0
2.75 -2.20708e-18 0
3 1.07284e-19 0
3.25 -5.5517e-19 0
3.5 1.20478e-18 0
3.75 -2.73214e-18 0
4 -2.2697e-19 0
4.25 1.04461e-18 0
4.5 3.1249e-21 0
4.75 -1.83359e-19 0
5 8.21248e-21 0
5.25 1.34647e-18 0
5.5 -1.14048e-18 0
5.75 5.0401e-19 0
6 -1.49854e-18 0
6.25 -3.92082e-19 0
6.5 3.05763e-18 0
6.75 9.61648e-19 0
7 1.22894e-18 0
7.25 1.24804e-18 0
7.5 -1.97963e-19 0
7.75 -1.33379e-19 0
8 -1.48269e-18 0
8.25 3.33126e-19 0
8.5 -5.3096e-18 0
8.75 2.16499e-19 0
9 -2.68587e-19 0
9.25 1.41043e-17 0
9.5 -3.58117e-15 0
9.75 -8.08375e-13 0
0.0833333 -1.67548e-20 0
0.166667 2.3888e-20 0
0.333333 -1.56208e-18 0
0.416667 -1.84191e-18 0
0.583333 -2.08603e-18 0
0.666667 -2.11702e-19 0
0.833333 -4.4694e-20 0
0.916667 -5.7046e-19 0
1.08333 1.24266e-19 0
1.16667 -4.46772e-19 0
1.33333 4.93835e-19 0
1.41667 -2.45237e-19 0
1.58333 -5.51087e-19 0
1.66667 -1.58303e-18 0
1.83333 -6.60122e-21 0
1.91667 1.18582e-19 0
2.08333 -7.59395e-20 0
2.16667 2.28792e-19 0
2.33333 2.9022e-18 0
2.41667 1.20731e-18 0
2.58333 -3.19245e-18 0
2.66667 2.50354e-18 0
2.83333 -2.4652e-18 0
2.91667 1.49155e-18 0
3.08333 4.78873e-20 0
3.16667 2.92853e-19 0
3.33333 1.84334e-20 0
3.41667 3.72457e-19 0
3.58333 1.22687e-18 0
3.66667 7.06346e-19 0
3.83333 2.73103e-18 0
3.91667 -5.41421e-20 0
4.08333 1.4233e-18 0
4.16667 -1.59865e-18 0
4.33333 4.48512e-19 0
4.41667 2.8974e-19 0
4.58333 4.89727e-20 0
4.66667 3.35442e-19 0
4.83333 -1.26268e-20 0
4.91667 -1.46471e-20 0
5.08333 -1.77769e-20 0
5.16667 9.50144e-20 0
5.33333 8.26759e-19 0
5.41667 1.78776e-18 0
5.58333 1.1573e-18 0
5.66667 1.2011e-18 0
5.83333 -4.64112e-19 0
5.91667 2.39935e-18 0
6.08333 6.47625e-19 0
6.16667 1.89541e-18 0
6.33333 -3.17368e-19 0
6.41667 1.73853e-18 0
6.58333 4.56551e-19 0
6.66667 5.29942e-19 0
6.83333 -3.29456e-20 0
6.91667 2.54061e-19 0
7.08333 -1.19366e-19 0
7.16667 1.57133e-18 0
7.33333 -6.72459e-19 0
7.41667 -1.15005e-19 0
7.58333 -2.01534e-20 0
7.66667 1.06009e-19 0
7.83333 -3.77083e-19 0
7.91667 2.43479e-18 0
8.08333 7.12353e-19 0
8.16667 -2.88938e-18 0
8.33333 -1.62064e-19 0
8.41667 1.60675e-18 0
8.58333 3.10367e-18 0
8.66667 2.06178e-18 0
8.83333 6.60431e-20 0
8.91667 1.48413e-19 0
9.08333 -4.2797e-19 0
9.16667 2.19097e-18 0
9.33333 -2.41767e-18 0
9.41667 6.89236e-17 0
9.58333 2.48907e-15 0
9.66667 4.78776e-15 0
9.83333 -1.40849e-12 0
9.91667 -1.87417e-11 0
10 0.00593333 0
10 0.0118667 0
9.75 0.0178 0
9.5 0.0178 0
9.25 0.0178 0
9 0.0178 0
8.75 0.0178 0
8.5 0.0178 0
8.25 0.0178 0
8 0.0178 0
7.75 0.0178 0
7.5 0.0178 0
7.25 0.0178 0
7 0.0178 0
6.75 0.0178 0
6.5 0.0178 0
6.25 0.0178 0
6 0.0178 0
5.75 0.0178 0
5.5 0.0178 0
5.25 0.0178 0
5 0.0178 0
4.75 0.0178 0
4.5 0.0178 0
4.25 0.0178 0
4 0.0178 0
3.75 0.0178 0
3.5 0.0178 0
3.25 0.0178 0
3 0.0178 0
2.75 0.0178 0
2.5 0.0178 0
2.25 0.0178 0
2 0.0178 0
1.75 0.0178 0
1.5 0.0178 0
1.25 0.0178 0
1 0.0178 0
0.75 0.0178 0
0.5 0.0178 0
0.25 0.0178 0
9.91667 0.0178 0
9.83333 0.0178 0
9.66667 0.0178 0
9.58333 0.0178 0
9.41667 0.0178 0
9.33333 0.0178 0
9.16667 0.0178 0
9.08333 0.0178 0
8.91667 0.0178 0
8.83333 0.0178 0
8.66667 0.0178 0
8.58333 0.0178 0
8.41667 0.0178 0
8.33333 0.0178 0
8.16667 0.0178 0
8.08333 0.0178 0
7.91667 0.0178 0
7.83333 0.0178 0
7.66667 0.0178 0
7.58333 0.0178 0
7.41667 0.0178 0
7.33333 0.0178 0
7.16667 0.0178 0
7.08333 0.0178 0
6.91667 0.0178 0
6.83333 0.0178 0
6.66667 0.0178 0
6.58333 0.0178 0
6.41667 0.0178 0
6.33333 0.0178 0
6.16667 0.0178 0
6.08333 0.0178 0
5.91667 0.0178 0
5.83333 0.0178 0
5.66667 0.0178 0
5.58333 0.0178 0
5.41667 0.0178 0
5.33333 0.0178 0
5.16667 0.0178 0
5.08333 0.0178 0
4.91667 0.0178 0
4.83333 0.0178 0
4.66667 0.0178 0
4.58333 0.0178 0
4.41667 0.0178 0
4.33333 0.0178 0
4.16667 0.0178 0
4.08333 0.0178 0
3.91667 0.0178 0
3.83333 0.0178 0
3.66667 0.0178 0
3.58333 0.0178 0
3.41667 0.0178 0
3.33333 0.0178 0
3.16667 0.0178 0
3.08333 0.0178 0
2.91667 0.0178 0
2.83333 0.0178 0
2.66667 0.0178 0
2.58333 0.0178 0
2.41667 0.0178 0
2.33333 0.0178 0
2.16667 0.0178 0
2.08333 0.0178 0
1.91667 0.0178 0
1.83333 0.0178 0
1.66667 0.0178 0
1.58333 0.0178 0
1.41667 0.0178 0
1.33333 0.0178 0
1.16667 0.0178 0
1.08333 0.0178 0
0.916667 0.0178 0
0.833333 0.0178 0
0.666667 0.0178 0
0.583333 0.0178 0
0.416667 0.0178 0
0.333333 0.0178 0
0.166667 0.0178 0
0.0833333 0.0178 0
0 0.0118667 0
0 0.00593333 0
0.0833333 0.00593333 0
0.166667 0.0118667 0
0.0833333 0.0118667 0
0.25 0.00593333 0
0.25 0.0118667 0
0.166667 0.00593333 0
9.83333 0.0118667 0
9.91667 0.00593333 0
9.91667 0.0118667 0
9.75 0.0118667 0
9.75 0.00593333 0
9.83333 0.00593333 0
0.5 0.00593333 0
0.5 0.0118667 0
0.416667 0.0118667 0
0.333333 0.00593333 0
0.416667 0.00593333 0
0.333333 0.0118667 0
0.666667 0.00593333 0
0.583333 0.0118667 0
0.583333 0.00593333 0
1 0.00593333 0
1 0.0118667 0
0.916667 0.0118667 0
0.833333 0.00593333 0
0.916667 0.00593333 0
0.75 0.0118667 0
0.75 0.00593333 0
0.833333 0.0118667 0
0.666667 0.0118667 0
1.25 0.00593333 0
1.25 0.0118667 0
1.16667 0.0118667 0
1.08333 0.00593333 0
1.16667 0.00593333 0
1.08333 0.0118667 0
1.5 0.00593333 0
1.5 0.0118667 0
1.41667 0.0118667 0
1.33333 0.00593333 0
1.41667 0.00593333 0
1.33333 0.0118667 0
1.66667 0.00593333 0
1.58333 0.0118667 0
1.58333 0.00593333 0
1.91667 0.00593333 0
1.83333 0.0118667 0
1.75 0.0118667 0
1.75 0.00593333 0
1.83333 0.00593333 0
1.66667 0.0118667 0
2.16667 0.00593333 0
2.08333 0.0118667 0
2 0.0118667 0
2 0.00593333 0
2.08333 0.00593333 0
1.91667 0.0118667 0
2.41667 0.00593333 0
2.33333 0.0118667 0
2.25 0.0118667 0
2.25 0.00593333 0
2.33333 0.00593333 0
2.16667 0.0118667 0
2.66667 0.00593333 0
2.58333 0.0118667 0
2.5 0.0118667 0
2.5 0.00593333 0
2.58333 0.00593333 0
2.41667 0.0118667 0
2.91667 0.00593333 0
2.83333 0.0118667 0
2.75 0.0118667 0
2.75 0.00593333 0
2.83333 0.00593333 0
2.66667 0.0118667 0
3.16667 0.00593333 0
3.08333 0.0118667 0
3 0.0118667 0
3 0.00593333 0
3.08333 0.00593333 0
2.91667 0.0118667 0
3.41667 0.00593333 0
3.33333 0.0118667 0
3.25 0.0118667 0
3.25 0.00593333 0
3.33333 0.00593333 0
3.16667 0.0118667 0
3.66667 0.00593333 0
3.58333 0.0118667 0
3.5 0.0118667 0
3.5 0.00593333 0
3.58333 0.00593333 0
3.41667 0.0118667 0
3.75 0.0118667 0
3.75 0.00593333 0
3.91667 0.00593333 0
3.83333 0.0118667 0
3.83333 0.00593333 0
3.66667 0.0118667 0
4 0.0118667 0
4 0.00593333 0
4.16667 0.00593333 0
4.08333 0.0118667 0
4.08333 0.00593333 0
3.91667 0.0118667 0
4.25 0.0118667 0
4.25 0.00593333 0
4.41667 0.00593333 0
4.33333 0.0118667 0
4.33333 0.00593333 0
4.16667 0.0118667 0
4.5 0.0118667 0
4.5 0.00593333 0
4.66667 0.00593333 0
4.58333 0.0118667 0
4.58333 0.00593333 0
4.41667 0.0118667 0
4.91667 0.00593333 0
4.83333 0.0118667 0
4.75 0.0118667 0
4.75 0.00593333 0
4.83333 0.00593333 0
4.66667 0.0118667 0
5 0.0118667 0
5 0.00593333 0
5.16667 0.00593333 0
5.08333 0.0118667 0
5.08333 0.00593333 0
4.91667 0.0118667 0
5.25 0.0118667 0
5.25 0.00593333 0
5.41667 0.00593333 0
5.33333 0.0118667 0
5.33333 0.00593333 0
5.16667 0.0118667 0
5.66667 0.00593333 0
5.58333 0.0118667 0
5.5 0.0118667 0
5.5 0.00593333 0
5.58333 0.00593333 0
5.41667 0.0118667 0
5.91667 0.00593333 0
5.83333 0.0118667 0
5.75 0.0118667 0
5.75 0.00593333 0
5.83333 0.00593333 0
5.66667 0.0118667 0
6.16667 0.00593333 0
6.08333 0.0118667 0
6 0.0118667 0
6 0.00593333 0
6.08333 0.00593333 0
5.91667 0.0118667 0
6.41667 0.00593333 0
6.33333 0.0118667 0
6.25 0.0118667 0
6.25 0.00593333 0
6.33333 0.00593333 0
6.16667 0.0118667 0
6.5 0.0118667 0
6.5 0.00593333 0
6.66667 0.00593333 0
6.58333 0.0118667 0
6.58333 0.00593333 0
6.41667 0.0118667 0
6.75 0.0118667 0
6.75 0.00593333 0
6.91667 0.00593333 0
6.83333 0.0118667 0
6.83333 0.00593333 0
6.66667 0.0118667 0
7 0.0118667 0
7 0.00593333 0
7.16667 0.00593333 0
7.08333 0.0118667 0
7.08333 0.00593333 0
6.91667 0.0118667 0
7.25 0.0118667 0
7.25 0.00593333 0
7.41667 0.00593333 0
7.33333 0.0118667 0
7.33333 0.00593333 0
7.16667 0.0118667 0
7.66667 0.00593333 0
7.58333 0.0118667 0
7.5 0.0118667 0
7.5 0.00593333 0
7.58333 0.00593333 0
7.41667 0.0118667 0
7.91667 0.00593333 0
7.83333 0.0118667 0
7.75 0.0118667 0
7.75 0.00593333 0
7.83333 0.00593333 0
7.66667 0.0118667 0
8.16667 0.00593333 0
8.08333 0.0118667 0
8 0.0118667 0
8 0.00593333 0
8.08333 0.00593333 0
7.91667 0.0118667 0
8.41667 0.00593333 0
8.33333 0.0118667 0
8.25 0.0118667 0
8.25 0.00593333 0
8.33333 0.00593333 0
8.16667 0.0118667 0
8.66667 0.00593333 0
8.58333 0.0118667 0
8.5 0.0118667 0
8.5 0.00593333 0
8.58333 0.00593333 0
8.41667 0.0118667 0
8.91667 0.00593333 0
8.83333 0.0118667 0
8.75 0.0118667 0
8.75 0.00593333 0
8.83333 0.00593333 0
8.66667 0.0118667 0
9.16667 0.00593333 0
9.08333 0.0118667 0
9 0.0118667 0
9 0.00593333 0
9.08333 0.00593333 0
8.91667 0.0118667 0
9.41667 0.00593333 0
9.33333 0.0118667 0
9.25 0.0118667 0
9.25 0.00593333 0
9.33333 0.00593333 0
9.16667 0.0118667 0
9.66667 0.00593333 0
9.58333 0.0118667 0
9.5 0.0118667 0
9.5 0.00593333 0
9.58333 0.00593333 0
9.41667 0.0118667 0
9.66667 0.0118667 0

CELLS 80 880
10 0 163 3 246 247 242 243 244 245 248
10 4 163 0 249 250 247 246 43 44 251
10 1 2 125 123 124 164 165 252 253 254
10 1 125 42 253 252 255 256 121 122 257
10 4 5 162 45 46 258 259 260 261 262
10 4 162 163 261 260 240 241 250 249 263
10 6 162 5 264 265 259 258 47 48 266
10 6 7 160 49 50 267 268 269 270 271
10 6 160 161 270 269 236 237 272 273 274
10 6 161 162 273 272 238 239 265 264 275
10 8 159 7 276 277 278 279 51 52 280
10 7 159 160 279 278 234 235 268 267 281
10 9 158 8 282 283 284 285 53 54 286
10 8 158 159 285 284 232 233 277 276 287
10 10 158 9 288 289 283 282 55 56 290
10 10 11 157 57 58 291 292 293 294 295
10 10 157 158 294 293 230 231 289 288 296
10 11 12 156 59 60 297 298 299 300 301
10 11 156 157 300 299 228 229 292 291 302
10 13 155 12 303 304 305 306 61 62 307
10 12 155 156 306 305 226 227 298 297 308
10 13 14 154 63 64 309 310 311 312 313
10 13 154 155 312 311 224 225 304 303 314
10 15 153 14 315 316 317 318 65 66 319
10 14 153 154 318 317 222 223 310 309 320
10 15 16 152 67 68 321 322 323 324 325
10 15 152 153 324 323 220 221 316 315 326
10 16 17 151 69 70 327 328 329 330 331
10 16 151 152 330 329 218 219 322 321 332
10 18 150 17 333 334 335 336 71 72 337
10 17 150 151 336 335 216 217 328 327 338
10 149 18 19 339 340 73 74 341 342 343
10 18 149 150 340 339 214 215 334 333 344
10 148 19 20 345 346 75 76 347 348 349
10 148 149 19 212 213 342 341 346 345 350
10 147 20 21 351 352 77 78 353 354 355
10 147 148 20 210 211 348 347 352 351 356
10 146 21 22 357 358 79 80 359 360 361
10 146 147 21 208 209 354 353 358 357 362
10 22 23 145 81 82 363 364 365 366 367
10 145 146 22 206 207 360 359 366 365 368
10 144 23 24 369 370 83 84 371 372 373
10 23 144 145 370 369 204 205 364 363 374
10 143 24 25 375 376 85 86 377 378 379
10 143 144 24 202 203 372 371 376 375 380
10 26 142 25 381 382 383 384 87 88 385
10 142 143 25 200 201 378 377 384 383 386
10 26 27 141 89 90 387 388 389 390 391
10 26 141 142 390 389 198 199 382 381 392
10 28 140 27 393 394 395 396 91 92 397
10 27 140 141 396 395 196 197 388 387 398
10 28 29 139 93 94 399 400 401 402 403
10 28 139 140 402 401 194 195 394 393 404
10 138 29 30 405 406 95 96 407 408 409
10 29 138 139 406 405 192 193 400 399 410
10 137 30 31 411 412 97 98 413 414 415
10 137 138 30 190 191 408 407 412 411 416
10 136 31 32 417 418 99 100 419 420 421
10 136 137 31 188 189 414 413 418 417 422
10 135 32 33 423 424 101 102 425 426 427
10 135 136 32 186 187 420 419 424 423 428
10 33 34 134 103 104 429 430 431 432 433
10 134 135 33 184 185 426 425 432 431 434
10 34 35 133 105 106 435 436 437 438 439
10 34 133 134 438 437 182 183 430 429 440
10 36 132 35 441 442 443 444 107 108 445
10 35 132 133 444 443 180 181 436 435 446
10 36 37 131 109 110 447 448 449 450 451
10 36 131 132 450 449 178 179 442 441 452
10 38 130 37 453 454 455 456 111 112 457
10 37 130 131 456 455 176 177 448 447 458
10 38 39 129 113 114 459 460 461 462 463
10 38 129 130 462 461 174 175 454 453 464
10 39 40 128 115 116 465 466 467 468 469
10 39 128 129 468 467 172 173 460 459 470
10 41 127 40 471 472 473 474 117 118 475
10 40 127 128 474 473 170 171 466 465 476
10 41 42 126 119 120 477 478 479 480 481
10 41 126 127 480 479 168 169 472 471 482
10 42 125 126 256 255 166 167 478 477 483

CELL_TYPES 80
69
69
69
69
69
69
69
69
69
69
69
69
69
69
69
69
69
69
69
69
69
69
69
69
69
69
69
69
69
69
69
69
69
69
69
69
69
69
69
69
69
69
69
69
69
69
69
69
69
69
69
69
69
69
69
69
69
69
69
69
69
69
69
69
69
69
69
69
69
69
69
69
69
69
69
69
69
69
69
69

CELL_DATA 80
POINT_DATA 484
VECTORS Y Float64
0 0 0.0
10 -2.63881e-12 0.0
10 0.0178 0.0
0 0.0178 0.0
0.25 -7.08125e-19 0.0
0.5 2.68099e-18 0.0
0.75 4.92572e-19 0.0
1 -1.71359e-18 0.0
1.25 2.21806e-18 0.0
1.5 -2.32589e-18 0.0
1.75 -2.40782e-19 0.0
2 -3.2853e-19 0.0
2.25 -2.1566e-18 0.0
2.5 -8.33157e-19 0.0
2.75 -2.20708e-18 0.0
3 1.07284e-19 0.0
3.25 -5.5517e-19 0.0
3.5 1.20478e-18 0.0
3.75 -2.73214e-18 0.0
4 -2.2697e-19 0.0
4.25 1.04461e-18 0.0
4.5 3.1249e-21 0.0
4.75 -1.83359e-19 0.0
5 8.21248e-21 0.0
5.25 1.34647e-18 0.0
5.5 -1.14048e-18 0.0
5.75 5.0401e-19 0.0
6 -1.49854e-18 0.0
6.25 -3.92082e-19 0.0
6.5 3.05763e-18 0.0
6.75 9.61648e-19 0.0
7 1.22894e-18 0.0
7.25 1.24804e-18 0.0
7.5 -1.97963e-19 0.0
7.75 -1.33379e-19 0.0
8 -1.48269e-18 0.0
8.25 3.33126e-19 0.0
8.5 -5.3096e-18 0.0
8.75 2.16499e-19 0.0
9 -2.68587e-19 0.0
9.25 1.41043e-17 0.0
9.5 -3.58117e-15 0.0
9.75 -8.08375e-13 0.0
0.0833333 -1.67548e-20 0.0
0.166667 2.3888e-20 0.0
0.333333 -1.56208e-18 0.0
0.416667 -1.84191e-18 0.0
0.583333 -2.08603e-18 0.0
0.666667 -2.11702e-19 0.0
0.833333 -4.4694e-20 0.0
0.916667 -5.7046e-19 0.0
1.08333 1.24266e-19 0.0
1.16667 -4.46772e-19 0.0
1.33333 4.93835e-19 0.0
1.41667 -2.45237e-19 0.0
1.58333 -5.51087e-19 0.0
1.66667 -1.58303e-18 0.0
1.83333 -6.60122e-21 0.0
1.91667 1.18582e-19 0.0
2.08333 -7.59395e-20 0.0
2.16667 2.28792e-19 0.0
2.33333 2.9022e-18 0.0
2.41667 1.20731e-18 0.0
2.58333 -3.19245e-18 0.0
2.66667 2.50354e-18 0.0
2.83333 -2.4652e-18 0.0
2.91667 1.49155e-18 0.0
3.08333 4.78873e-20 0.0
3.16667 2.92853e-19 0.0
3.33333 1.84334e-20 0.0
3.41667 3.72457e-19 0.0
3.58333 1.22687e-18 0.0
3.66667 7.06346e-19 0.0
3.83333 2.73103e-18 0.0
3.91667 -5.41421e-20 0.0
4.08333 1.4233e-18 0.0
4.16667 -1.59865e-18 0.0
4.33333 4.48512e-19 0.0
4.41667 2.8974e-19 0.0
4.58333 4.89727e-20 0.0
4.66667 3.35442e-19 0.0
4.83333 -1.26268e-20 0.0
4.91667 -1.46471e-20 0.0
5.08333 -1.77769e-20 0.0
5.16667 9.50144e-20 0.0
5.33333 8.26759e-19 0.0
5.41667 1.78776e-18 0.0
5.58333 1.1573e-18 0.0
5.66667 1.2011e-18 0.0
5.83333 -4.64112e-19 0.0
5.91667 2.39935e-18 0.0
6.08333 6.47625e-19 0.0
6.16667 1.89541e-18 0.0
6.33333 -3.17368e-19 0.0
6.41667 1.73853e-18 0.0
6.58333 4.56551e-19 0.0
6.66667 5.29942e-19 0.0
6.83333 -3.29456e-20 0.0
6.91667 2.54061e-19 0.0
7.08333 -1.19366e-19 0.0
7.16667 1.57133e-18 0.0
7.33333 -6.72459e-19 0.0
7.41667 -1.15005e-19 0.0
7.58333 -2.01534e-20 0.0
7.66667 1.06009e-19 0.0
7.83333 -3.77083e-19 0.0
7.91667 2.43479e-18 0.0
8.08333 7.12353e-19 0.0
8.16667 -2.88938e-18 0.0
8.33333 -1.62064e-19 0.0
8.41667 1.60675e-18 0.0
8.58333 3.10367e-18 0.0
8.66667 2.06178e-18 0.0
8.83333 6.60431e-20 0.0
8.91667 1.48413e-19 0.0
9.08333 -4.2797e-19 0.0
9.16667 2.19097e-18 0.0
9.33333 -2.41767e-18 0.0
9.41667 6.89236e-17 0.0
9.58333 2.48907e-15 0.0
9.66667 4.78776e-15 0.0
9.83333 -1.40849e-12 0.0
9.91667 -1.87417e-11 0.0
10 0.00593333 0.0
10 0.0118667 0.0
9.75 0.0178 0.0
9.5 0.0178 0.0
9.25 0.0178 0.0
9 0.0178 0.0
8.75 0.0178 0.0
8.5 0.0178 0.0
8.25 0.0178 0.0
8 0.0178 0.0
7.75 0.0178 0.0
7.5 0.0178 0.0
7.25 0.0178 0.0
7 0.0178 0.0
6.75 0.0178 0.0
6.5 0.0178 0.0
6.25 0.0178 0.0
6 0.0178 0.0
5.75 0.0178 0.0
5.5 0.0178 0.0
5.25 0.0178 0.0
5 0.0178 0.0
4.75 0.0178 0.0
4.5 0.0178 0.0
4.25 0.0178 0.0
4 0.0178 0.0
3.75 0.0178 0.0
3.5 0.0178 0.0
3.25 0.0178 0.0
3 0.0178 0.0
2.75 0.0178 0.0
2.5 0.0178 0.0
2.25 0.0178 0.0
2 0.0178 0.0
1.75 0.0178 0.0
1.5 0.0178 0.0
1.25 0.0178 0.0
1 0.0178 0.0
0.75 0.0178 0.0
0.5 0.0178 0.0
0.25 0.0178 0.0
9.91667 0.0178 0.0
9.83333 0.0178 0.0
9.66667 0.0178 0.0
9.58333 0.0178 0.0
9.41667 0.0178 0.0
9.33333 0.0178 0.0
9.16667 0.0178 0.0
9.08333 0.0178 0.0
8.91667 0.0178 0.0
8.83333 0.0178 0.0
8.66667 0.0178 0.0
8.58333 0.0178 0.0
8.41667 0.0178 0.0
8.33333 0.0178 0.0
8.16667 0.0178 0.0
8.08333 0.0178 0.0
7.91667 0.0178 0.0
7.83333 0.0178 0.0
7.66667 0.0178 0.0
7.58333 0.0178 0.0
7.41667 0.0178 0.0
7.33333 0.0178 0.0
7.16667 0.0178 0.0
7.08333 0.0178 0.0
6.91667 0.0178 0.0
6.83333 0.0178 0.0
6.66667 0.0178 0.0
6.58333 0.0178 0.0
6.41667 0.0178 0.0
6.33333 0.0178 0.0
6.16667 0.0178 0.0
6.08333 0.0178 0.0
5.91667 0.0178 0.0
5.83333 0.0178 0.0
5.66667 0.0178 0.0
5.58333 0.0178 0.0
5.41667 0.0178 0.0
5.33333 0.0178 0.0
5.16667 0.0178 0.0
5.08333 0.0178 0.0
4.91667 0.0178 0.0
4.83333 0.0178 0.0
4.66667 0.0178 0.0
4.58333 0.0178 0.0
4.41667 0.0178 0.0
4.33333 0.0178 0.0
4.16667 0.0178 0.0
4.08333 0.0178 0.0
3.91667 0.0178 0.0
3.83333 0.0178 0.0
3.66667 0.0178 0.0
3.58333 0.0178 0.0
3.41667 0.0178 0.0
3.33333 0.0178 0.0
3.16667 0.0178 0.0
3.08333 0.0178 0.0
2.91667 0.0178 0.0
2.83333 0.0178 0.0
2.66667 0.0178 0.0
2.58333 0.0178 0.0
2.41667 0.0178 0.0
2.33333 0.0178 0.0
2.16667 0.0178 0.0
2.08333 0.0178 0.0
1.91667 0.0178 0.0
1.83333 0.0178 0.0
1.66667 0.0178 0.0
1.58333 0.0178 0.0
1.41667 0.0178 0.0
1.33333 0.0178 0.0
1.16667 0.0178 0.0
1.08333 0.0178 0.0
0.916667 0.0178 0.0
0.833333 0.0178 0.0
0.666667 0.0178 0.0
0.583333 0.0178 0.0
0.416667 0.0178 0.0
0.333333 0.0178 0.0
0.166667 0.0178 0.0
0.0833333 0.0178 0.0
0 0.0118667 0.0
0 0.00593333 0.0
0.0833333 0.00593333 0.0
0.166667 0.0118667 0.0
0.0833333 0.0118667 0.0
0.25 0.00593333 0.0
0.25 0.0118667 0.0
0.166667 0.00593333 0.0
9.83333 0.0118667 0.0
9.91667 0.00593333 0.0
9.91667 0.0118667 0.0
9.75 0.0118667 0.0
9.75 0.00593333 0.0
9.83333 0.00593333 0.0
0.5 0.00593333 0.0
0.5 0.0118667 0.0
0.416667 0.0118667 0.0
0.333333 0.00593333 0.0
0.416667 0.00593333 0.0
0.333333 0.0118667 0.0
0.666667 0.00593333 0.0
0.583333 0.0118667 0.0
0.583333 0.00593333 0.0
1 0.00593333 0.0
1 0.0118667 0.0
0.916667 0.0118667 0.0
0.833333 0.00593333 0.0
0.916667 0.00593333 0.0
0.75 0.0118667 0.0
0.75 0.00593333 0.0
0.833333 0.0118667 0.0
0.666667 0.0118667 0.0
1.25 0.00593333 0.0
1.25 0.0118667 0.0
1.16667 0.0118667 0.0
1.08333 0.00593333 0.0
1.16667 0.00593333 0.0
1.08333 0.0118667 0.0
1.5 0.00593333 0.0
1.5 0.0118667 0.0
1.41667 0.0118667 0.0
1.33333 0.00593333 0.0
1.41667 0.00593333 0.0
1.33333 0.0118667 0.0
1.66667 0.00593333 0.0
1.58333 0.0118667 0.0
1.58333 0.00593333 0.0
1.91667 0.00593333 0.0
1.83333 0.0118667 0.0
1.75 0.0118667 0.0
1.75 0.00593333 0.0
1.83333 0.00593333 0.0
1.66667 0.0118667 0.0
2.16667 0.00593333 0.0
2.08333 0.0118667 0.0
2 0.0118667 0.0
2 0.00593333 0.0
2.08333 0.00593333 0.0
1.91667 0.0118667 0.0
2.41667 0.00593333 0.0
2.33333 0.0118667 0.0
2.25 0.0118667 0.0
2.25 0.00593333 0.0
2.33333 0.00593333 0.0
2.16667 0.0118667 0.0
2.66667 0.00593333 0.0
2.58333 0.0118667 0.0
2.5 0.0118667 0.0
2.5 0.00593333 0.0
2.58333 0.00593333 0.0
2.41667 0.0118667 0.0
2.91667 0.00593333 0.0
2.83333 0.0118667 0.0
2.75 0.0118667 0.0
2.75 0.00593333 0.0
2.83333 0.00593333 0.0
2.66667 0.0118667 0.0
3.16667 0.00593333 0.0
3.08333 0.0118667 0.0
3 0.0118667 0.0
3 0.00593333 0.0
3.08333 0.00593333 0.0
2.91667 0.0118667 0.0
3.41667 0.00593333 0.0
3.33333 0.0118667 0.0
3.25 0.0118667 0.0
3.25 0.00593333 0.0
3.33333 0.00593333 0.0
3.16667 0.0118667 0.0
3.66667 0.00593333 0.0
3.58333 0.0118667 0.0
3.5 0.0118667 0.0
3.5 0.00593333 0.0
3.58333 0.00593333 0.0
3.41667 0.0118667 0.0
3.75 0.0118667 0.0
3.75 0.00593333 0.0
3.91667 0.00593333 0.0
3.83333 0.0118667 0.0
3.83333 0.00593333 0.0
3.66667 0.0118667 0.0
4 0.0118667 0.0
4 0.00593333 0.0
4.16667 0.00593333 0.0
4.08333 0.0118667 0.0
4.08333 0.00593333 0.0
3.91667 0.0118667 0.0
4.25 0.0118667 0.0
4.25 0.00593333 0.0
4.41667 0.00593333 0.0
4.33333 0.0118667 0.0
4.33333 0.00593333 0.0
4.16667 0.0118667 0.0
4.5 0.0118667 0.0
4.5 0.00593333 0.0
4.66667 0.00593333 0.0
4.58333 0.0118667 0.0
4.58333 0.00593333 0.0
4.41667 0.0118667 0.0
4.91667 0.00593333 0.0
4.83333 0.0118667 0.0
4.75 0.0118667 0.0
4.75 0.00593333 0.0
4.83333 0.00593333 0.0
4.66667 0.0118667 0.0
5 0.0118667 0.0
5 0.00593333 0.0
5.16667 0.00593333 0.0
5.08333 0.0118667 0.0
5.08333 0.00593333 0.0
4.91667 0.0118667 0.0
5.25 0.0118667 0.0
5.25 0.00593333 0.0
5.41667 0.00593333 0.0
5.33333 0.0118667 0.0
5.33333 0.00593333 0.0
5.16667 0.0118667 0.0
5.66667 0.00593333 0.0
5.58333 0.0118667 0.0
5.5 0.0118667 0.0
5.5 0.00593333 0.0
5.58333 0.00593333 0.0
5.41667 0.0118667 0.0
5.91667 0.00593333 0.0
5.83333 0.0118667 0.0
5.75 0.0118667 0.0
5.75 0.00593333 0.0
5.83333 0.00593333 0.0
5.66667 0.0118667 0.0
6.16667 0.00593333 0.0
6.08333 0.0118667 0.0
6 0.0118667 0.0
6 0.00593333 0.0
6.08333 0.00593333 0.0
5.91667 0.0118667 0.0
6.41667 0.00593333 0.0
6.33333 0.0118667 0.0
6.25 0.0118667 0.0
6.25 0.00593333 0.0
6.33333 0.00593333 0.0
6.16667 0.0118667 0.0
6.5 0.0118667 0.0
6.5 0.00593333 0.0
6.66667 0.00593333 0.0
6.58333 0.0118667 0.0
6.58333 0.00593333 0.0
6.41667 0.0118667 0.0
6.75 0.0118667 0.0
6.75 0.00593333 0.0
6.91667 0.00593333 0.0
6.83333 0.0118667 0.0
6.83333 0.00593333 0.0
6.66667 0.0118667 0.0
7 0.0118667 0.0
7 0.00593333 0.0
7.16667 0.00593333 0.0
7.08333 0.0118667 0.0
7.08333 0.00593333 0.0
6.91667 0.0118667 0.0
7.25 0.0118667 0.0
7.25 0.00593333 0.0
7.41667 0.00593333 0.0
7.33333 0.0118667 0.0
7.33333 0.00593333 0.0
7.16667 0.0118667 0.0
7.66667 0.00593333 0.0
7.58333 0.0118667 0.0
7.5 0.0118667 0.0
7.5 0.00593333 0.0
7.58333 0.00593333 0.0
7.41667 0.0118667 0.0
7.91667 0.00593333 0.0
7.83333 0.0118667 0.0
7.75 0.0118667 0.0
7.75 0.00593333 0.0
7.83333 0.00593333 0.0
7.66667 0.0118667 0.0
8.16667 0.00593333 0.0
8.08333 0.0118667 0.0
8 0.0118667 0.0
8 0.00593333 0.0
8.08333 0.00593333 0.0
7.91667 0.0118667 0.0
8.41667 0.00593333 0.0
8.33333 0.0118667 0.0
8.25 0.0118667 0.0
8.25 0.00593333 0.0
8.33333 0.00593333 0.0
8.16667 0.0118667 0.0
8.66667 0.00593333 0.0
8.58333 0.0118667 0.0
8.5 0.0118667 0.0
8.5 0.00593333 0.0
8.58333 0.00593333 0.0
8.41667 0.0118667 0.0
8.91667 0.00593333 0.0
8.83333 0.0118667 0.0
8.75 0.0118667 0.0
8.75 0.00593333 0.0
8.83333 0.00593333 0.0
8.66667 0.0118667 0.0
9.16667 0.00593333 0.0
9.08333 0.0118667 0.0
9 0.0118667 0.0
9 0.00593333 0.0
9.08333 0.00593333 0.0
8.91667 0.0118667 0.0
9.41667 0.00593333 0.0
9.33333 0.0118667 0.0
9.25 0.0118667 0.0
9.25 0.00593333 0.0
9.33333 0.00593333 0.0
9.16667 0.0118667 0.0
9.66667 0.00593333 0.0
9.58333 0.0118667 0.0
9.5 0.0118667 0.0
9.5 0.00593333 0.0
9.58333 0.00593333 0.0
9.41667 0.0118667 0.0
9.66667 0.0118667 0.0

CELL_DATA 80
POINT_DATA 484
VECTORS U Float64
0 0 0.0
-9.86589e-12 -2.63881e-12 0.0
8.71676e-11 -1.17024e-09 0.0
0 0 0.0
0 -7.08125e-19 0.0
0 2.68099e-18 0.0
0 4.92572e-19 0.0
0 -1.71359e-18 0.0
0 2.21806e-18 0.0
0 -2.32589e-18 0.0
0 -2.40782e-19 0.0
0 -3.2853e-19 0.0
0 -2.1566e-18 0.0
0 -8.33157e-19 0.0
0 -2.20708e-18 0.0
0 1.07284e-19 0.0
0 -5.5517e-19 0.0
0 1.20478e-18 0.0
0 -2.73214e-18 0.0
0 -2.2697e-19 0.0
0 1.04461e-18 0.0
0 3.1249e-21 0.0
0 -1.83359e-19 0.0
0 8.21248e-21 0.0
0 1.34647e-18 0.0
0 -1.14048e-18 0.0
0 5.0401e-19 0.0
0 -1.49854e-18 0.0
0 -3.92082e-19 0.0
0 3.05763e-18 0.0
0 9.61648e-19 0.0
0 1.22894e-18 0.0
0 1.24804e-18 0.0
0 -1.97963e-19 0.0
0 -1.33379e-19 0.0
0 -1.48269e-18 0.0
0 3.33126e-19 0.0
0 -5.3096e-18 0.0
0 2.16499e-19 0.0
0 -2.68587e-19 0.0
0 1.41043e-17 0.0
-1.24345e-14 -3.58117e-15 0.0
1.10667e-12 -8.08375e-13 0.0
0 -1.67548e-20 0.0
0 2.3888e-20 0.0
0 -1.56208e-18 0.0
0 -1.84191e-18 0.0
0 -2.08603e-18 0.0
0 -2.11702e-19 0.0
0 -4.4694e-20 0.0
0 -5.7046e-19 0.0
0 1.24266e-19 0.0
0 -4.46772e-19 0.0
0 4.93835e-19 0.0
0 -2.45237e-19 0.0
0 -5.51087e-19 0.0
0 -1.58303e-18 0.0
0 -6.60122e-21 0.0
0 1.18582e-19 0.0
0 -7.59395e-20 0.0
0 2.28792e-19 0.0
0 2.9022e-18 0.0
0 1.20731e-18 0.0
0 -3.19245e-18 0.0
0 2.50354e-18 0.0
0 -2.4652e-18 0.0
0 1.49155e-18 0.0
0 4.78873e-20 0.0
0 2.92853e-19 0.0
0 1.84334e-20 0.0
0 3.72457e-19 0.0
0 1.22687e-18 0.0
0 7.06346e-19 0.0
0 2.73103e-18 0.0
0 -5.41421e-20 0.0
0 1.4233e-18 0.0
0 -1.59865e-18 0.0
0 4.48512e-19 0.0
0 2.8974e-19 0.0
0 4.89727e-20 0.0
0 3.35442e-19 0.0
0 -1.26268e-20 0.0
0 -1.46471e-20 0.0
0 -1.77769e-20 0.0
0 9.50144e-20 0.0
0 8.26759e-19 0.0
0 1.78776e-18 0.0
0 1.1573e-18 0.0
0 1.2011e-18 0.0
0 -4.64112e-19 0.0
0 2.39935e-18 0.0
0 6.47625e-19 0.0
0 1.89541e-18 0.0
0 -3.17368e-19 0.0
0 1.73853e-18 0.0
0 4.56551e-19 0.0
0 5.29942e-19 0.0
0 -3.29456e-20 0.0
0 2.54061e-19 0.0
0 -1.19366e-19 0.0
0 1.57133e-18 0.0
0 -6.72459e-19 0.0
0 -1.15005e-19 0.0
0 -2.01534e-20 0.0
0 1.06009e-19 0.0
0 -3.77083e-19 0.0
0 2.43479e-18 0.0
0 7.12353e-19 0.0
0 -2.88938e-18 0.0
0 -1.62064e-19 0.0
0 1.60675e-18 0.0
0 3.10367e-18 0.0
0 2.06178e-18 0.0
0 6.60431e-20 0.0
0 1.48413e-19 0.0
0 -4.2797e-19 0.0
0 2.19097e-18 0.0
0 -2.41767e-18 0.0
1.77636e-15 6.89236e-17 0.0
2.30926e-14 2.48907e-15 0.0
-2.84217e-14 4.78776e-15 0.0
-1.59872e-14 -1.40849e-12 0.0
-3.98259e-12 -1.87417e-11 0.0
-1.92415e-11 -8.65538e-11 0.0
-4.44089e-13 -4.74157e-10 0.0
-8.47322e-13 4.24483e-13 0.0
1.24345e-14 -2.32453e-16 0.0
0 0 0.0
0 0 0.0
0 0 0.0
0 -3.46945e-18 0.0
0 0 0.0
0 -3.46945e-18 0.0
0 0 0.0
0 0 0.0
0 0 0.0
0 0 0.0
0 0 0.0
0 3.46945e-18 0.0
0 0 0.0
0 -3.46945e-18 0.0
0 0 0.0
0 0 0.0
0 0 0.0
0 0 0.0
0 0 0.0
0 0 0.0
0 0 0.0
0 0 0.0
0 3.46945e-18 0.0
0 0 0.0
0 0 0.0
0 0 0.0
0 0 0.0
0 3.46945e-18 0.0
0 3.46945e-18 0.0
0 0 0.0
0 0 0.0
0 -3.46945e-18 0.0
0 0 0.0
0 0 0.0
0 0 0.0
0 3.46945e-18 0.0
0 0 0.0
1.25837e-11 4.19374e-11 0.0
-1.33227e-13 2.82843e-11 0.0
2.66454e-14 -3.32512e-14 0.0
8.88178e-15 -3.88439e-14 0.0
0 6.93889e-17 0.0
0 7.63278e-17 0.0
0 0 0.0
0 0 0.0
0 0 0.0
0 0 0.0
0 0 0.0
0 0 0.0
0 3.46945e-18 0.0
0 3.46945e-18 0.0
0 0 0.0
0 0 0.0
0 0 0.0
0 3.46945e-18 0.0
0 0 0.0
0 0 0.0
0 0 0.0
0 0 0.0
0 0 0.0
0 0 0.0
0 0 0.0
0 0 0.0
0 0 0.0
0 0 0.0
0 -3.46945e-18 0.0
0 0 0.0
0 0 0.0
0 0 0.0
0 0 0.0
0 3.46945e-18 0.0
0 0 0.0
0 -3.46945e-18 0.0
0 0 0.0
0 0 0.0
0 0 0.0
0 0 0.0
0 0 0.0
0 0 0.0
0 0 0.0
0 0 0.0
0 0 0.0
0 0 0.0
0 0 0.0
0 0 0.0
0 -3.46945e-18 0.0
0 -3.46945e-18 0.0
0 0 0.0
0 0 0.0
0 0 0.0
0 0 0.0
0 0 0.0
0 0 0.0
0 0 0.0
0 0 0.0
0 0 0.0
0 0 0.0
0 -3.46945e-18 0.0
0 -3.46945e-18 0.0
0 0 0.0
0 0 0.0
0 0 0.0
0 0 0.0
0 0 0.0
0 0 0.0
0 0 0.0
0 0 0.0
0 0 0.0
0 0 0.0
0 0 0.0
0 0 0.0
0 0 0.0
0 0 0.0
0 0 0.0
0 0 0.0
0 0 0.0
0 0 0.0
0 0 0.0
0 0 0.0
0 0 0.0
0 0 0.0
0 0 0.0
0 0 0.0
0 0 0.0
0 0 0.0
5.50671e-13 -7.59341e-12 0.0
9.73444e-13 -2.33971e-11 0.0
-4.23306e-12 7.93417e-12 0.0
-1.29674e-13 3.23404e-13 0.0
1.03029e-13 -3.94727e-13 0.0
-4.99156e-13 -4.18552e-12 0.0
0 -8.67362e-19 0.0
0 0 0.0
0 0 0.0
0 8.67362e-19 0.0
0 8.67362e-19 0.0
0 0 0.0
0 0 0.0
0 0 0.0
0 8.67362e-19 0.0
0 0 0.0
0 0 0.0
0 0 0.0
0 -8.67362e-19 0.0
0 0 0.0
0 0 0.0
0 0 0.0
0 0 0.0
0 0 0.0
0 8.67362e-19 0.0
0 0 0.0
0 0 0.0
0 0 0.0
0 0 0.0
0 -1.73472e-18 0.0
0 8.67362e-19 0.0
0 1.73472e-18 0.0
0 0 0.0
0 8.67362e-19 0.0
0 0 0.0
0 0 0.0
0 0 0.0
0 0 0.0
0 8.67362e-19 0.0
0 0 0.0
0 0 0.0
0 0 0.0
0 0 0.0
0 0 0.0
0 0 0.0
0 8.67362e-19 0.0
0 0 0.0
0 0 0.0
0 0 0.0
0 0 0.0
0 0 0.0
0 -8.67362e-19 0.0
0 1.73472e-18 0.0
0 0 0.0
0 -8.67362e-19 0.0
0 -2.60209e-18 0.0
0 0 0.0
0 0 0.0
0 0 0.0
0 0 0.0
0 -8.67362e-19 0.0
0 8.67362e-19 0.0
0 1.73472e-18 0.0
0 -1.73472e-18 0.0
0 0 0.0
0 0 0.0
0 0 0.0
0 1.73472e-18 0.0
0 0 0.0
0 0 0.0
0 0 0.0
0 0 0.0
0 0 0.0
0 0 0.0
0 0 0.0
0 0 0.0
0 0 0.0
0 0 0.0
0 0 0.0
0 0 0.0
0 0 0.0
0 -2.60209e-18 0.0
0 1.73472e-18 0.0
0 0 0.0
0 0 0.0
0 -2.60209e-18 0.0
0 0 0.0
0 1.73472e-18 0.0
0 -8.67362e-19 0.0
0 -8.67362e-19 0.0
0 1.73472e-18 0.0
0 -8.67362e-19 0.0
0 1.73472e-18 0.0
0 0 0.0
0 -8.67362e-19 0.0
0 8.67362e-19 0.0
0 0 0.0
0 -8.67362e-19 0.0
0 1.73472e-18 0.0
0 0 0.0
0 -8.67362e-19 0.0
0 0 0.0
0 0 0.0
0 0 0.0
0 0 0.0
0 0 0.0
0 0 0.0
0 0 0.0
0 0 0.0
0 8.67362e-19 0.0
0 0 0.0
0 0 0.0
0 0 0.0
0 0 0.0
0 0 0.0
0 0 0.0
0 0 0.0
0 0 0.0
0 0 0.0
0 0 0.0
0 0 0.0
0 0 0.0
0 0 0.0
0 0 0.0
0 0 0.0
0 -8.67362e-19 0.0
0 0 0.0
0 8.67362e-19 0.0
0 0 0.0
0 -8.67362e-19 0.0
0 1.73472e-18 0.0
0 0 0.0
0 -8.67362e-19 0.0
0 -8.67362e-19 0.0
0 0 0.0
0 -8.67362e-19 0.0
0 0 0.0
0 0 0.0
0 0 0.0
0 0 0.0
0 0 0.0
0 -8.67362e-19 0.0
0 0 0.0
0 0 0.0
0 0 0.0
0 0 0.0
0 0 0.0
0 -8.67362e-19 0.0
0 0 0.0
0 0 0.0
0 0 0.0
0 0 0.0
0 0 0.0
0 0 0.0
0 -8.67362e-19 0.0
0 0 0.0
0 -1.73472e-18 0.0
0 8.67362e-19 0.0
0 0 0.0
0 0 0.0
0 0 0.0
0 0 0.0
0 0 0.0
0 -8.67362e-19 0.0
0 0 0.0
0 0 0.0
0 0 0.0
0 -8.67362e-19 0.0
0 0 0.0
0 0 0.0
0 0 0.0
0 0 0.0
0 -8.67362e-19 0.0
0 0 0.0
0 0 0.0
0 0 0.0
0 0 0.0
0 0 0.0
0 0 0.0
0 0 0.0
0 0 0.0
0 0 0.0
0 0 0.0
0 -8.67362e-19 0.0
0 0 0.0
0 0 0.0
0 0 0.0
0 0 0.0
0 0 0.0
0 8.67362e-19 0.0
0 -1.73472e-18 0.0
0 0 0.0
0 -8.67362e-19 0.0
0 8.67362e-19 0.0
0 0 0.0
0 -1.73472e-18 0.0
0 -1.73472e-18 0.0
0 0 0.0
0 0 0.0
0 0 0.0
0 0 0.0
0 -1.73472e-18 0.0
0 0 0.0
0 0 0.0
0 -8.67362e-19 0.0
0 -8.67362e-19 0.0
0 1.73472e-18 0.0
0 0 0.0
0 0 0.0
0 0 0.0
0 0 0.0
0 0 0.0
0 1.73472e-18 0.0
0 8.67362e-19 0.0
0 0 0.0
0 0 0.0
0 0 0.0
0 0 0.0
0 0 0.0
0 2.42861e-17 0.0
0 -9.54098e-17 0.0
0 1.21431e-17 0.0
0 3.46945e-18 0.0
0 1.56125e-17 0.0
0 -1.73472e-18 0.0
-1.77636e-15 3.64266e-14 0.0
-8.88178e-15 1.72484e-14 0.0
0 -2.44596e-15 0.0
0 2.48499e-15 0.0
-7.10543e-15 2.32973e-15 0.0
0 3.98986e-17 0.0
1.77636e-15 -2.21594e-14 0.0

CELL_DATA 80
POINT_DATA 484
TENSORS E Float64
0 -8.2896e-19  0.00
-8.2896e-19 0  0.00
0.00 0.00  0.00

1.25851e-10 1.5239e-09  0.00
1.5239e-09 9.19653e-10  0.00
0.00 0.00  0.00

1.03705e-09 3.18601e-09  0.00
3.18601e-09 -1.02838e-07  0.00
0.00 0.00  0.00

0 0  0.00
0 -1.11022e-16  0.00
0.00 0.00  0.00

0 -9.56094e-19  0.00
-9.56094e-19 1.4803e-16  0.00
0.00 0.00  0.00

0 1.0513e-17  0.00
1.0513e-17 1.11022e-16  0.00
0.00 0.00  0.00

0 5.04318e-18  0.00
5.04318e-18 4.16334e-16  0.00
0.00 0.00  0.00

0 6.62605e-18  0.00
6.62605e-18 -1.4803e-16  0.00
0.00 0.00  0.00