# vtk DataFile Version 2.0
FEM, Created by Wutzow
ASCII
DATASET UNSTRUCTURED_GRID
POINTS 2209 Float64
0 0 0
6.00946 -1.42912e-05 0
6.00946 0.300024 0
0 0.3 0
0.100158 -6.60626e-09 0
0.200317 -2.40705e-08 0
0.300475 -5.17572e-08 0
0.400633 -8.91381e-08 0
0.500792 -1.35686e-07 0
0.60095 -1.90875e-07 0
0.701108 -2.54173e-07 0
0.801267 -3.25039e-07 0
0.901425 -4.02907e-07 0
1.00158 -4.87186e-07 0
1.10174 -5.77241e-07 0
1.2019 -6.72393e-07 0
1.30206 -7.71906e-07 0
1.40222 -8.74989e-07 0
1.50238 -9.80787e-07 0
1.60253 -1.08837e-06 0
1.70269 -1.19676e-06 0
1.80285 -1.3049e-06 0
1.90301 -1.41165e-06 0
2.00317 -1.51585e-06 0
2.10333 -1.61625e-06 0
2.20348 -1.71158e-06 0
2.30364 -1.80052e-06 0
2.4038 -1.88172e-06 0
2.50396 -1.95382e-06 0
2.60412 -2.01547e-06 0
2.70428 -2.06532e-06 0
2.80443 -2.10206e-06 0
2.90459 -2.12443e-06 0
3.00475 -2.13118e-06 0
3.10491 -2.12118e-06 0
3.20507 -2.09348e-06 0
3.30523 -2.04724e-06 0
3.40538 -1.98174e-06 0
3.50554 -1.89639e-06 0
3.6057 -1.79074e-06 0
3.70586 -1.66452e-06 0
3.80602 -1.51759e-06 0
3.90618 -1.35001e-06 0
4.00633 -1.16201e-06 0
4.10649 -9.5397e-07 0
4.20665 -7.26468e-07 0
4.30681 -4.80231e-07 0
4.40697 -2.16158e-07 0
4.50713 6.47193e-08 0
4.60728 3.61221e-07 0
4.70744 6.72065e-07 0
4.8076 9.95862e-07 0
4.90776 1.33116e-06 0
5.00792 1.67645e-06 0
5.10808 2.03007e-06 0
5.20823 2.38969e-06 0
5.30839 2.75108e-06 0
5.40855 3.11e-06 0
5.50871 3.49266e-06 0
5.60887 4.11087e-06 0
5.70903 5.7589e-06 0
5.80918 9.7846e-06 0
5.90932 1.0393e-05 0
0.0333861 -9.09187e-10 0
0.0667722 -3.14856e-09 0
0.133544 -1.12589e-08 0
0.166931 -1.70867e-08 0
0.233703 -3.21905e-08 0
0.267089 -4.14263e-08 0
0.333861 -6.31652e-08 0
0.367247 -7.56325e-08 0
0.434019 -1.03661e-07 0
0.467406 -1.19184e-07 0
0.534178 -1.53149e-07 0
0.567564 -1.71552e-07 0
0.634336 -2.11098e-07 0
0.667722 -2.32204e-07 0
0.734494 -2.76983e-07 0
0.767881 -3.00612e-07 0
0.834653 -3.50242e-07 0
0.868039 -3.76206e-07 0
0.934811 -4.3032e-07 0
0.968197 -4.58422e-07 0
1.03497 -5.16591e-07 0
1.06836 -5.46618e-07 0
1.13513 -6.08431e-07 0
1.16851 -6.40158e-07 0
1.23529 -7.05111e-07 0
1.26867 -7.38292e-07 0
1.33544 -8.05914e-07 0
1.36883 -8.40286e-07 0
1.4356 -9.09992e-07 0
1.46899 -9.45271e-07 0
1.53576 -1.0165e-06 0
1.56915 -1.05238e-06 0
1.63592 -1.12446e-06 0
1.66931 -1.1606e-06 0
1.73608 -1.23289e-06 0
1.76946 -1.26895e-06 0
1.83624 -1.34069e-06 0
1.86962 -1.37629e-06 0
1.93639 -1.44673e-06 0
1.96978 -1.48148e-06 0
2.03655 -1.5498e-06 0
2.06994 -1.58329e-06 0
2.13671 -1.64866e-06 0
2.1701 -1.68045e-06 0
2.23687 -1.742e-06 0
2.27026 -1.77167e-06 0
2.33703 -1.82851e-06 0
2.37041 -1.8556e-06 0
2.43719 -1.90683e-06 0
2.47057 -1.93088e-06 0
2.53734 -1.97559e-06 0
2.57073 -1.99616e-06 0
2.6375 -2.03347e-06 0
2.67089 -2.0501e-06 0
2.73766 -2.07909e-06 0
2.77105 -2.09135e-06 0
2.83782 -2.11118e-06 0
2.87121 -2.11865e-06 0
2.93798 -2.12847e-06 0
2.97136 -2.13074e-06 0
3.03814 -2.12976e-06 0
3.07152 -2.12644e-06 0
3.13829 -2.11397e-06 0
3.17168 -2.10475e-06 0
3.23845 -2.08016e-06 0
3.27184 -2.06476e-06 0
3.33861 -2.02759e-06 0
3.372 -2.00577e-06 0
3.43877 -1.95551e-06 0
3.47216 -1.92707e-06 0
3.53893 -1.86346e-06 0
3.57231 -1.82825e-06 0
3.63909 -1.75096e-06 0
3.67247 -1.70888e-06 0
3.73925 -1.61785e-06 0
3.77263 -1.56888e-06 0
3.8394 -1.46401e-06 0
3.87279 -1.40815e-06 0
3.93956 -1.28961e-06 0
3.97295 -1.22694e-06 0
4.03972 -1.09486e-06 0
4.07311 -1.0255e-06 0
4.13988 -8.80277e-07 0
4.17326 -8.04436e-07 0
4.24004 -6.46422e-07 0
4.27342 -5.64333e-07 0
4.3402 -3.94151e-07 0
4.37358 -3.06115e-07 0
4.44035 -1.24337e-07 0
4.47374 -3.06981e-08 0
4.54051 1.61871e-07 0
4.5739 2.60719e-07 0
4.64067 4.63314e-07 0
4.67406 5.66945e-07 0
4.74083 7.78624e-07 0
4.77422 8.86572e-07 0
4.84099 1.10643e-06 0
4.87437 1.21821e-06 0
4.94115 1.44522e-06 0
4.97453 1.56034e-06 0
5.0413 1.79349e-06 0
5.07469 1.91139e-06 0
5.14146 2.14943e-06 0
5.17485 2.26935e-06 0
5.24162 2.51022e-06 0
5.27501 2.63074e-06 0
5.34178 2.87093e-06 0
5.37517 2.99036e-06 0
5.44194 3.23064e-06 0
5.47532 3.35621e-06 0
5.5421 3.64872e-06 0
5.57548 3.84663e-06 0
5.64225 4.4803e-06 0
5.67564 5.0157e-06 0
5.74241 6.82857e-06 0
5.7758 8.21699e-06 0
5.84257 1.13281e-05 0
5.87595 1.19671e-05 0
5.94269 2.30207e-06 0
5.97607 -1.4782e-05 0
6.00951 0.0749653 0
6.00957 0.150005 0
6.00951 0.225044 0
6.00944 0.0249754 0
6.00947 0.0499637 0
6.00953 0.0999766 0
6.00955 0.124988 0
6.00955 0.175023 0
6.00953 0.200034 0
6.00947 0.250048 0
6.00944 0.275035 0
5.90932 0.3 0
5.80918 0.299999 0
5.70903 0.300003 0
5.60887 0.300004 0
5.50871 0.300004 0
5.40855 0.300003 0
5.30839 0.300003 0
5.20823 0.300002 0
5.10808 0.300002 0
5.00792 0.300002 0
4.90776 0.300001 0
4.8076 0.300001 0
4.70744 0.300001 0
4.60728 0.3 0
4.50713 0.3 0
4.40697 0.3 0
4.30681 0.3 0
4.20665 0.299999 0
4.10649 0.299999 0
4.00633 0.299999 0
3.90618 0.299999 0
3.80602 0.299998 0
3.70586 0.299998 0
3.6057 0.299998 0
3.50554 0.299998 0
3.40538 0.299998 0
3.30523 0.299998 0
3.20507 0.299998 0
3.10491 0.299998 0
3.00475 0.299998 0
2.90459 0.299998 0
2.80443 0.299998 0
2.70428 0.299998 0
2.60412 0.299998 0
2.50396 0.299998 0
2.4038 0.299998 0
2.30364 0.299998 0
2.20348 0.299998 0
2.10333 0.299998 0
2.00317 0.299998 0
1.90301 0.299999 0
1.80285 0.299999 0
1.70269 0.299999 0
1.60253 0.299999 0
1.50238 0.299999 0
1.40222 0.299999 0
1.30206 0.299999 0
1.2019 0.299999 0
1.10174 0.299999 0
1.00158 0.3 0
0.901425 0.3 0
0.801267 0.3 0
0.701109 0.3 0
0.60095 0.3 0
0.500792 0.3 0
0.400633 0.3 0
0.300475 0.3 0
0.200317 0.3 0
0.100158 0.3 0
5.97607 0.300026 0
5.94269 0.300008 0
5.87594 0.299998 0
5.84256 0.299998 0
5.7758 0.300001 0
5.74241 0.300002 0
5.67564 0.300003 0
5.64225 0.300004 0
5.57548 0.300004 0
5.54209 0.300004 0
5.47532 0.300003 0
5.44194 0.300003 0
5.37516 0.300003 0
5.34178 0.300003 0
5.27501 0.300003 0
5.24162 0.300003 0
5.17485 0.300002 0
5.14146 0.300002 0
5.07469 0.300002 0
5.0413 0.300002 0
4.97453 0.300002 0
4.94114 0.300001 0
4.87437 0.300001 0
4.84099 0.300001 0
4.77421 0.300001 0
4.74083 0.300001 0
4.67406 0.300001 0
4.64067 0.3 0
4.5739 0.3 0
4.54051 0.3 0
4.47374 0.3 0
4.44035 0.3 0
4.37358 0.3 0
4.34019 0.3 0
4.27342 0.299999 0
4.24004 0.299999 0
4.17326 0.299999 0
4.13988 0.299999 0
4.07311 0.299999 0
4.03972 0.299999 0
3.97295 0.299999 0
3.93956 0.299999 0
3.87279 0.299999 0
3.8394 0.299999 0
3.77263 0.299998 0
3.73924 0.299998 0
3.67247 0.299998 0
3.63909 0.299998 0
3.57231 0.299998 0
3.53893 0.299998 0
3.47216 0.299998 0
3.43877 0.299998 0
3.372 0.299998 0
3.33861 0.299998 0
3.27184 0.299998 0
3.23845 0.299998 0
3.17168 0.299998 0
3.13829 0.299998 0
3.07152 0.299998 0
3.03814 0.299998 0
2.97136 0.299998 0
2.93798 0.299998 0
2.87121 0.299998 0
2.83782 0.299998 0
2.77105 0.299998 0
2.73766 0.299998 0
2.67089 0.299998 0
2.6375 0.299998 0
2.57073 0.299998 0
2.53734 0.299998 0
2.47057 0.299998 0
2.43719 0.299998 0
2.37041 0.299998 0
2.33703 0.299998 0
2.27026 0.299998 0
2.23687 0.299998 0
2.1701 0.299998 0
2.13671 0.299998 0
2.06994 0.299998 0
2.03655 0.299998 0
1.96978 0.299999 0
1.93639 0.299999 0
1.86962 0.299999 0
1.83624 0.299999 0
1.76946 0.299999 0
1.73608 0.299999 0
1.66931 0.299999 0
1.63592 0.299999 0
1.56915 0.299999 0
1.53576 0.299999 0
1.46899 0.299999 0
1.4356 0.299999 0
1.36883 0.299999 0
1.33544 0.299999 0
1.26867 0.299999 0
1.23529 0.299999 0
1.16851 0.299999 0
1.13513 0.299999 0
1.06836 0.299999 0
1.03497 0.299999 0
0.968197 0.3 0
0.934811 0.3 0
0.868039 0.3 0
0.834653 0.3 0
0.767881 0.3 0
0.734495 0.3 0
0.667722 0.3 0
0.634336 0.3 0
0.567564 0.3 0
0.534178 0.3 0
0.467406 0.3 0
0.43402 0.3 0
0.367247 0.3 0
0.333861 0.3 0
0.267089 0.3 0
0.233703 0.3 0
0.166931 0.3 0
0.133544 0.3 0
0.0667722 0.3 0
0.0333861 0.3 0
0 0.225 0
0 0.15 0
0 0.075 0
0 0.275 0
0 0.25 0
0 0.2 0
0 0.175 0
0 0.125 0
0 0.1 0
0 0.05 0
0 0.025 0
5.84775 0.152455 0
0.156497 0.15 0
0.651029 0.15 0
0.461275 0.151031 0
5.66849 0.150646 0
5.15815 0.150002 0
0.851346 0.15 0
1.05166 0.149999 0
5.3489 0.148961 0
1.25198 0.149999 0
4.95784 0.150002 0
1.4523 0.149999 0
1.65261 0.149999 0
3.95625 0.149999 0
1.85293 0.149999 0
3.75594 0.149998 0
2.05325 0.149998 0
4.75752 0.150001 0
3.55562 0.149998 0
4.5572 0.15 0
4.15657 0.149999 0
2.25356 0.149998 0
4.35689 0.15 0
2.45388 0.149998 0
3.3553 0.149998 0
2.6542 0.149998 0
3.16456 0.148956 0
2.84494 0.15104 0
3.00475 0.149998 0
5.50871 0.150003 0
0.30336 0.148286 0
0.553275 0.0918142 0
5.058 0.200002 0
5.25735 0.204241 0
0.751188 0.0999997 0
0.951504 0.0999996 0
1.15182 0.0999994 0
1.35214 0.0999992 0
1.55245 0.099999 0
4.05641 0.199999 0
1.75277 0.0999987 0
4.85768 0.200001 0
3.8561 0.199999 0
1.95309 0.0999985 0
4.25673 0.199999 0
4.65736 0.200001 0
3.65578 0.199998 0
4.45705 0.2 0
2.1534 0.0999983 0
2.35372 0.0999982 0
3.45546 0.199998 0
2.55404 0.099998 0
3.25611 0.204236 0
2.75339 0.0957596 0
5.75892 0.093947 0
5.76002 0.206757 0
0.0731356 0.18663 0
5.93551 0.113785 0
2.75232 0.20889 0
3.25718 0.0911059 0
2.55404 0.206248 0
5.058 0.0937519 0
2.35372 0.206248 0
3.45546 0.0937481 0
2.1534 0.206248 0
3.65578 0.0937483 0
1.95309 0.206249 0
5.25628 0.0911105 0
3.8561 0.0937486 0
1.75277 0.206249 0
1.55245 0.206249 0
1.35214 0.206249 0
0.951504 0.20625 0
1.15182 0.206249 0
4.05641 0.0937489 0
0.751188 0.20625 0
4.85768 0.0937512 0
4.25673 0.0937494 0
0.553287 0.208314 0
4.45705 0.0937499 0
4.65736 0.0937505 0
5.93164 0.204912 0
0.0763162 0.0947189 0
0.231354 0.209581 0
0.228799 0.0896744 0
0.383678 0.191338 0
2.93358 0.0927462 0
2.92963 0.208331 0
5.43754 0.092539 0
5.58383 0.208337 0
3.07592 0.20725 0
5.4367 0.207627 0
5.58383 0.0916705 0
3.07987 0.0916645 0
0.372424 0.0904109 0
0.135257 0.234785 0
5.87002 0.0662894 0
5.85085 0.23143 0
2.6542 0.233331 0
2.45388 0.233331 0
3.3553 0.0666646 0
2.25356 0.233332 0
3.55562 0.0666648 0
2.05325 0.233332 0
3.75594 0.0666651 0
1.85293 0.233332 0
1.65261 0.233332 0
3.95625 0.0666654 0
1.4523 0.233332 0
4.15657 0.0666658 0
4.35689 0.0666663 0
4.55721 0.0666669 0
4.75752 0.0666675 0
4.95784 0.0666682 0
0.651029 0.0666664 0
1.25198 0.233333 0
5.15816 0.0666689 0
[...]
CELL_DATA 448
POINT_DATA 2209
VECTORS Y Float64
0 0 0.0
6.00946 -1.42912e-05 0.0
6.00946 0.300024 0.0
0 0.3 0.0
0.100158 -6.60626e-09 0.0
0.200317 -2.40705e-08 0.0
0.300475 -5.17572e-08 0.0
0.400633 -8.91381e-08 0.0
0.500792 -1.35686e-07 0.0
0.60095 -1.90875e-07 0.0
0.701108 -2.54173e-07 0.0
0.801267 -3.25039e-07 0.0
0.901425 -4.02907e-07 0.0
1.00158 -4.87186e-07 0.0
1.10174 -5.77241e-07 0.0
1.2019 -6.72393e-07 0.0
1.30206 -7.71906e-07 0.0
1.40222 -8.74989e-07 0.0
1.50238 -9.80787e-07 0.0
1.60253 -1.08837e-06 0.0
1.70269 -1.19676e-06 0.0
1.80285 -1.3049e-06 0.0
1.90301 -1.41165e-06 0.0
2.00317 -1.51585e-06 0.0
2.10333 -1.61625e-06 0.0
2.20348 -1.71158e-06 0.0
2.30364 -1.80052e-06 0.0
2.4038 -1.88172e-06 0.0
2.50396 -1.95382e-06 0.0
2.60412 -2.01547e-06 0.0
2.70428 -2.06532e-06 0.0
2.80443 -2.10206e-06 0.0
2.90459 -2.12443e-06 0.0
3.00475 -2.13118e-06 0.0
3.10491 -2.12118e-06 0.0
3.20507 -2.09348e-06 0.0
3.30523 -2.04724e-06 0.0
3.40538 -1.98174e-06 0.0
3.50554 -1.89639e-06 0.0
3.6057 -1.79074e-06 0.0
3.70586 -1.66452e-06 0.0
3.80602 -1.51759e-06 0.0
3.90618 -1.35001e-06 0.0
4.00633 -1.16201e-06 0.0
4.10649 -9.5397e-07 0.0
4.20665 -7.26468e-07 0.0
4.30681 -4.80231e-07 0.0
4.40697 -2.16158e-07 0.0
4.50713 6.47193e-08 0.0
4.60728 3.61221e-07 0.0
4.70744 6.72065e-07 0.0
4.8076 9.95862e-07 0.0
4.90776 1.33116e-06 0.0
5.00792 1.67645e-06 0.0
5.10808 2.03007e-06 0.0
5.20823 2.38969e-06 0.0
5.30839 2.75108e-06 0.0
5.40855 3.11e-06 0.0
5.50871 3.49266e-06 0.0
5.60887 4.11087e-06 0.0
5.70903 5.7589e-06 0.0
5.80918 9.7846e-06 0.0
5.90932 1.0393e-05 0.0
0.0333861 -9.09187e-10 0.0
0.0667722 -3.14856e-09 0.0
0.133544 -1.12589e-08 0.0
0.166931 -1.70867e-08 0.0
0.233703 -3.21905e-08 0.0
0.267089 -4.14263e-08 0.0
0.333861 -6.31652e-08 0.0
0.367247 -7.56325e-08 0.0
0.434019 -1.03661e-07 0.0
0.467406 -1.19184e-07 0.0
0.534178 -1.53149e-07 0.0
0.567564 -1.71552e-07 0.0
0.634336 -2.11098e-07 0.0
0.667722 -2.32204e-07 0.0
0.734494 -2.76983e-07 0.0
0.767881 -3.00612e-07 0.0
0.834653 -3.50242e-07 0.0
0.868039 -3.76206e-07 0.0
0.934811 -4.3032e-07 0.0
0.968197 -4.58422e-07 0.0
1.03497 -5.16591e-07 0.0
1.06836 -5.46618e-07 0.0
1.13513 -6.08431e-07 0.0
1.16851 -6.40158e-07 0.0
1.23529 -7.05111e-07 0.0
1.26867 -7.38292e-07 0.0
1.33544 -8.05914e-07 0.0
1.36883 -8.40286e-07 0.0
1.4356 -9.09992e-07 0.0
1.46899 -9.45271e-07 0.0
1.53576 -1.0165e-06 0.0
1.56915 -1.05238e-06 0.0
1.63592 -1.12446e-06 0.0
1.66931 -1.1606e-06 0.0
1.73608 -1.23289e-06 0.0
1.76946 -1.26895e-06 0.0
1.83624 -1.34069e-06 0.0
1.86962 -1.37629e-06 0.0
1.93639 -1.44673e-06 0.0
1.96978 -1.48148e-06 0.0
2.03655 -1.5498e-06 0.0
2.06994 -1.58329e-06 0.0
2.13671 -1.64866e-06 0.0
2.1701 -1.68045e-06 0.0
2.23687 -1.742e-06 0.0
2.27026 -1.77167e-06 0.0
2.33703 -1.82851e-06 0.0
2.37041 -1.8556e-06 0.0
2.43719 -1.90683e-06 0.0
2.47057 -1.93088e-06 0.0
2.53734 -1.97559e-06 0.0
2.57073 -1.99616e-06 0.0
2.6375 -2.03347e-06 0.0
2.67089 -2.0501e-06 0.0
2.73766 -2.07909e-06 0.0
2.77105 -2.09135e-06 0.0
2.83782 -2.11118e-06 0.0
2.87121 -2.11865e-06 0.0
2.93798 -2.12847e-06 0.0
2.97136 -2.13074e-06 0.0
3.03814 -2.12976e-06 0.0
3.07152 -2.12644e-06 0.0
3.13829 -2.11397e-06 0.0
3.17168 -2.10475e-06 0.0
3.23845 -2.08016e-06 0.0
3.27184 -2.06476e-06 0.0
3.33861 -2.02759e-06 0.0
3.372 -2.00577e-06 0.0
3.43877 -1.95551e-06 0.0
3.47216 -1.92707e-06 0.0
3.53893 -1.86346e-06 0.0
3.57231 -1.82825e-06 0.0
3.63909 -1.75096e-06 0.0
3.67247 -1.70888e-06 0.0
3.73925 -1.61785e-06 0.0
3.77263 -1.56888e-06 0.0
3.8394 -1.46401e-06 0.0
3.87279 -1.40815e-06 0.0
3.93956 -1.28961e-06 0.0
3.97295 -1.22694e-06 0.0
4.03972 -1.09486e-06 0.0
4.07311 -1.0255e-06 0.0
4.13988 -8.80277e-07 0.0
4.17326 -8.04436e-07 0.0
4.24004 -6.46422e-07 0.0
4.27342 -5.64333e-07 0.0
4.3402 -3.94151e-07 0.0
4.37358 -3.06115e-07 0.0
4.44035 -1.24337e-07 0.0
4.47374 -3.06981e-08 0.0
4.54051 1.61871e-07 0.0
4.5739 2.60719e-07 0.0
4.64067 4.63314e-07 0.0
4.67406 5.66945e-07 0.0
4.74083 7.78624e-07 0.0
4.77422 8.86572e-07 0.0
4.84099 1.10643e-06 0.0
4.87437 1.21821e-06 0.0
4.94115 1.44522e-06 0.0
4.97453 1.56034e-06 0.0
5.0413 1.79349e-06 0.0
5.07469 1.91139e-06 0.0
5.14146 2.14943e-06 0.0
5.17485 2.26935e-06 0.0
5.24162 2.51022e-06 0.0
5.27501 2.63074e-06 0.0
5.34178 2.87093e-06 0.0
5.37517 2.99036e-06 0.0
5.44194 3.23064e-06 0.0
5.47532 3.35621e-06 0.0
5.5421 3.64872e-06 0.0
5.57548 3.84663e-06 0.0
5.64225 4.4803e-06 0.0
5.67564 5.0157e-06 0.0
5.74241 6.82857e-06 0.0
5.7758 8.21699e-06 0.0
5.84257 1.13281e-05 0.0
5.87595 1.19671e-05 0.0
5.94269 2.30207e-06 0.0
5.97607 -1.4782e-05 0.0
6.00951 0.0749653 0.0
6.00957 0.150005 0.0
6.00951 0.225044 0.0
6.00944 0.0249754 0.0
6.00947 0.0499637 0.0
6.00953 0.0999766 0.0
6.00955 0.124988 0.0
6.00955 0.175023 0.0
6.00953 0.200034 0.0
6.00947 0.250048 0.0
6.00944 0.275035 0.0
5.90932 0.3 0.0
5.80918 0.299999 0.0
5.70903 0.300003 0.0
5.60887 0.300004 0.0
5.50871 0.300004 0.0
5.40855 0.300003 0.0
5.30839 0.300003 0.0
5.20823 0.300002 0.0
5.10808 0.300002 0.0
5.00792 0.300002 0.0
4.90776 0.300001 0.0
4.8076 0.300001 0.0
4.70744 0.300001 0.0
4.60728 0.3 0.0
4.50713 0.3 0.0
4.40697 0.3 0.0
4.30681 0.3 0.0
4.20665 0.299999 0.0
4.10649 0.299999 0.0
4.00633 0.299999 0.0
3.90618 0.299999 0.0
3.80602 0.299998 0.0
3.70586 0.299998 0.0
3.6057 0.299998 0.0
3.50554 0.299998 0.0
3.40538 0.299998 0.0
3.30523 0.299998 0.0
3.20507 0.299998 0.0
3.10491 0.299998 0.0
3.00475 0.299998 0.0
2.90459 0.299998 0.0
2.80443 0.299998 0.0
2.70428 0.299998 0.0
2.60412 0.299998 0.0
2.50396 0.299998 0.0
2.4038 0.299998 0.0
2.30364 0.299998 0.0
2.20348 0.299998 0.0
2.10333 0.299998 0.0
2.00317 0.299998 0.0
1.90301 0.299999 0.0
1.80285 0.299999 0.0
1.70269 0.299999 0.0
1.60253 0.299999 0.0
1.50238 0.299999 0.0
1.40222 0.299999 0.0
1.30206 0.299999 0.0
1.2019 0.299999 0.0
1.10174 0.299999 0.0
1.00158 0.3 0.0
0.901425 0.3 0.0
0.801267 0.3 0.0
0.701109 0.3 0.0
0.60095 0.3 0.0
0.500792 0.3 0.0
0.400633 0.3 0.0
0.300475 0.3 0.0
0.200317 0.3 0.0
0.100158 0.3 0.0
5.97607 0.300026 0.0
5.94269 0.300008 0.0
5.87594 0.299998 0.0
5.84256 0.299998 0.0
5.7758 0.300001 0.0
5.74241 0.300002 0.0
5.67564 0.300003 0.0
5.64225 0.300004 0.0
5.57548 0.300004 0.0
5.54209 0.300004 0.0
5.47532 0.300003 0.0
5.44194 0.300003 0.0
5.37516 0.300003 0.0
5.34178 0.300003 0.0
5.27501 0.300003 0.0
5.24162 0.300003 0.0
5.17485 0.300002 0.0
5.14146 0.300002 0.0
5.07469 0.300002 0.0
5.0413 0.300002 0.0
4.97453 0.300002 0.0
4.94114 0.300001 0.0
4.87437 0.300001 0.0
4.84099 0.300001 0.0
4.77421 0.300001 0.0
4.74083 0.300001 0.0
4.67406 0.300001 0.0
4.64067 0.3 0.0
4.5739 0.3 0.0
4.54051 0.3 0.0
4.47374 0.3 0.0
4.44035 0.3 0.0
4.37358 0.3 0.0
4.34019 0.3 0.0
4.27342 0.299999 0.0
4.24004 0.299999 0.0
4.17326 0.299999 0.0
4.13988 0.299999 0.0
4.07311 0.299999 0.0
4.03972 0.299999 0.0
3.97295 0.299999 0.0
3.93956 0.299999 0.0
3.87279 0.299999 0.0
3.8394 0.299999 0.0
3.77263 0.299998 0.0
3.73924 0.299998 0.0
3.67247 0.299998 0.0
3.63909 0.299998 0.0
3.57231 0.299998 0.0
3.53893 0.299998 0.0
3.47216 0.299998 0.0
3.43877 0.299998 0.0
3.372 0.299998 0.0
3.33861 0.299998 0.0
3.27184 0.299998 0.0
3.23845 0.299998 0.0
3.17168 0.299998 0.0
3.13829 0.299998 0.0
3.07152 0.299998 0.0
3.03814 0.299998 0.0
2.97136 0.299998 0.0
2.93798 0.299998 0.0
2.87121 0.299998 0.0
2.83782 0.299998 0.0
2.77105 0.299998 0.0
2.73766 0.299998 0.0
2.67089 0.299998 0.0
2.6375 0.299998 0.0
2.57073 0.299998 0.0
2.53734 0.299998 0.0
2.47057 0.299998 0.0
2.43719 0.299998 0.0
2.37041 0.299998 0.0
2.33703 0.299998 0.0
2.27026 0.299998 0.0
2.23687 0.299998 0.0
2.1701 0.299998 0.0
2.13671 0.299998 0.0
2.06994 0.299998 0.0
2.03655 0.299998 0.0
1.96978 0.299999 0.0
1.93639 0.299999 0.0
1.86962 0.299999 0.0
1.83624 0.299999 0.0
1.76946 0.299999 0.0
1.73608 0.299999 0.0
1.66931 0.299999 0.0
1.63592 0.299999 0.0
1.56915 0.299999 0.0
1.53576 0.299999 0.0
1.46899 0.299999 0.0
1.4356 0.299999 0.0
1.36883 0.299999 0.0
1.33544 0.299999 0.0
1.26867 0.299999 0.0
1.23529 0.299999 0.0
1.16851 0.299999 0.0
1.13513 0.299999 0.0
1.06836 0.299999 0.0
1.03497 0.299999 0.0
0.968197 0.3 0.0
0.934811 0.3 0.0
0.868039 0.3 0.0
0.834653 0.3 0.0
0.767881 0.3 0.0
0.734495 0.3 0.0
0.667722 0.3 0.0
0.634336 0.3 0.0
0.567564 0.3 0.0
0.534178 0.3 0.0
0.467406 0.3 0.0
0.43402 0.3 0.0
0.367247 0.3 0.0
0.333861 0.3 0.0
0.267089 0.3 0.0
0.233703 0.3 0.0
0.166931 0.3 0.0
0.133544 0.3 0.0
0.0667722 0.3 0.0
0.0333861 0.3 0.0
0 0.225 0.0
0 0.15 0.0
0 0.075 0.0
0 0.275 0.0
0 0.25 0.0
0 0.2 0.0
0 0.175 0.0
0 0.125 0.0
0 0.1 0.0
0 0.05 0.0
0 0.025 0.0
5.84775 0.152455 0.0
0.156497 0.15 0.0
0.651029 0.15 0.0
0.461275 0.151031 0.0
5.66849 0.150646 0.0
5.15815 0.150002 0.0
0.851346 0.15 0.0
1.05166 0.149999 0.0
5.3489 0.148961 0.0
1.25198 0.149999 0.0
4.95784 0.150002 0.0
1.4523 0.149999 0.0
1.65261 0.149999 0.0
3.95625 0.149999 0.0
1.85293 0.149999 0.0
3.75594 0.149998 0.0
2.05325 0.149998 0.0
4.75752 0.150001 0.0
3.55562 0.149998 0.0
4.5572 0.15 0.0
4.15657 0.149999 0.0
2.25356 0.149998 0.0
4.35689 0.15 0.0
2.45388 0.149998 0.0
3.3553 0.149998 0.0
2.6542 0.149998 0.0
3.16456 0.148956 0.0
2.84494 0.15104 0.0
3.00475 0.149998 0.0
5.50871 0.150003 0.0
0.30336 0.148286 0.0
0.553275 0.0918142 0.0
5.058 0.200002 0.0
5.25735 0.204241 0.0
0.751188 0.0999997 0.0
0.951504 0.0999996 0.0
1.15182 0.0999994 0.0
1.35214 0.0999992 0.0
1.55245 0.099999 0.0
4.05641 0.199999 0.0
1.75277 0.0999987 0.0
4.85768 0.200001 0.0
3.8561 0.199999 0.0
1.95309 0.0999985 0.0
4.25673 0.199999 0.0
4.65736 0.200001 0.0
3.65578 0.199998 0.0
4.45705 0.2 0.0
2.1534 0.0999983 0.0
2.35372 0.0999982 0.0
3.45546 0.199998 0.0
2.55404 0.099998 0.0
3.25611 0.204236 0.0
2.75339 0.0957596 0.0
5.75892 0.093947 0.0
5.76002 0.206757 0.0
0.0731356 0.18663 0.0
5.93551 0.113785 0.0
2.75232 0.20889 0.0
3.25718 0.0911059 0.0
2.55404 0.206248 0.0
5.058 0.0937519 0.0
2.35372 0.206248 0.0
3.45546 0.0937481 0.0
2.1534 0.206248 0.0
3.65578 0.0937483 0.0
1.95309 0.206249 0.0
5.25628 0.0911105 0.0
3.8561 0.0937486 0.0
1.75277 0.206249 0.0
1.55245 0.206249 0.0
1.35214 0.206249 0.0
0.951504 0.20625 0.0
1.15182 0.206249 0.0
4.05641 0.0937489 0.0
0.751188 0.20625 0.0
4.85768 0.0937512 0.0
4.25673 0.0937494 0.0
0.553287 0.208314 0.0
4.45705 0.0937499 0.0
4.65736 0.0937505 0.0
5.93164 0.204912 0.0
0.0763162 0.0947189 0.0
0.231354 0.209581 0.0
0.228799 0.0896744 0.0
0.383678 0.191338 0.0
2.93358 0.0927462 0.0
2.92963 0.208331 0.0
5.43754 0.092539 0.0
5.58383 0.208337 0.0
3.07592 0.20725 0.0
5.4367 0.207627 0.0
5.58383 0.0916705 0.0
3.07987 0.0916645 0.0
0.372424 0.0904109 0.0
0.135257 0.234785 0.0
5.87002 0.0662894 0.0
5.85085 0.23143 0.0
2.6542 0.233331 0.0
2.45388 0.233331 0.0
3.3553 0.0666646 0.0
2.25356 0.233332 0.0
3.55562 0.0666648 0.0
2.05325 0.233332 0.0
3.75594 0.0666651 0.0
1.85293 0.233332 0.0
1.65261 0.233332 0.0
3.95625 0.0666654 0.0
1.4523 0.233332 0.0
4.15657 0.0666658 0.0
4.35689 0.0666663 0.0
4.55721 0.0666669 0.0
4.75752 0.0666675 0.0
4.95784 0.0666682 0.0
0.651029 0.0666664 0.0
1.25198 0.233333 0.0
5.15816 0.0666689 0.0
1.05166 0.233333 0.0
0.851346 0.233333 0.0
5.15815 0.233336 0.0
0.851346 0.0666663 0.0
1.05166 0.0666661 0.0
0.651029 0.233333 0.0
1.25198 0.0666659 0.0
4.95784 0.233335 0.0
1.4523 0.0666657 0.0
1.65261 0.0666655 0.0
3.95625 0.233332 0.0
1.85293 0.0666653 0.0
3.75594 0.233332 0.0
2.05325 0.0666651 0.0
3.55562 0.233331 0.0
2.25356 0.0666649 0.0
4.15657 0.233332 0.0
4.75752 0.233334 0.0
4.5572 0.233334 0.0
4.35689 0.233333 0.0
3.3553 0.233331 0.0
2.45388 0.0666647 0.0
2.6542 0.0666646 0.0
0.152418 0.0668786 0.0
0.454658 0.23202 0.0
2.85083 0.06789 0.0
5.35275 0.0669152 0.0
5.66352 0.232382 0.0
5.35479 0.232111 0.0
3.15867 0.232106 0.0
5.66263 0.0678968 0.0
2.84823 0.23321 0.0
3.16128 0.0667861 0.0
0.457162 0.0682053 0.0
3.00352 0.218852 0.0
3.00599 0.0811434 0.0
5.50979 0.218924 0.0
5.50994 0.0811111 0.0
5.94676 0.0510145 0.0
0.0617102 0.249283 0.0
0.0441186 0.0424297 0.0
5.96497 0.257492 0.0
0.318144 0.228731 0.0
0.300752 0.0757136 0.0
5.69863 0.131746 0.0
5.72878 0.112846 0.0
5.75929 0.13155 0.0
5.75965 0.169153 0.0
5.72951 0.188054 0.0
5.699 0.16935 0.0
5.72914 0.15045 0.0
5.98356 0.218323 0.0
5.9576 0.211614 0.0
5.95761 0.186613 0.0
5.98359 0.168312 0.0
5.98357 0.193319 0.0
0.0254387 0.081573 0.0
0.0508775 0.0881459 0.0
0.0508775 0.113146 0.0
0.0254387 0.131573 0.0
0.0254387 0.106573 0.0
2.68726 0.131919 0.0
2.72032 0.113839 0.0
2.75303 0.13347 0.0
2.75268 0.17118 0.0
2.71961 0.189259 0.0
2.68691 0.169629 0.0
2.71997 0.151549 0.0
3.32224 0.168077 0.0
3.28918 0.186157 0.0
3.25647 0.166526 0.0
3.25682 0.128816 0.0
3.28989 0.110737 0.0
3.3226 0.130367 0.0
3.28953 0.148447 0.0
2.48727 0.133331 0.0
2.52065 0.116665 0.0
2.55404 0.135415 0.0
2.55404 0.170831 0.0
2.52065 0.187498 0.0
2.48727 0.168748 0.0
2.52065 0.152081 0.0
3.52224 0.166665 0.0
3.48885 0.183331 0.0
3.45546 0.164581 0.0
3.45546 0.129165 0.0
3.48885 0.112498 0.0
3.52224 0.131248 0.0
3.48885 0.147915 0.0
2.28695 0.133332 0.0
2.32034 0.116665 0.0
2.35372 0.135415 0.0
2.35372 0.170831 0.0
2.32034 0.187498 0.0
2.28695 0.168748 0.0
2.32034 0.152082 0.0
2.08663 0.133332 0.0
2.12002 0.116665 0.0
2.1534 0.135415 0.0
2.1534 0.170832 0.0
2.12002 0.187498 0.0
2.08663 0.168748 0.0
2.12002 0.152082 0.0
3.72255 0.166665 0.0
3.68917 0.183332 0.0
3.65578 0.164582 0.0
3.65578 0.129165 0.0
3.68917 0.112498 0.0
3.72255 0.131248 0.0
3.68917 0.147915 0.0
1.88632 0.133332 0.0
1.9197 0.116665 0.0
1.95309 0.135415 0.0
1.95309 0.170832 0.0
1.9197 0.187499 0.0
1.88632 0.168749 0.0
1.9197 0.152082 0.0
3.92287 0.166665 0.0
3.88948 0.183332 0.0
3.8561 0.164582 0.0
3.8561 0.129165 0.0
3.88948 0.112499 0.0
3.92287 0.131249 0.0
3.88948 0.147915 0.0
1.686 0.133332 0.0
1.71938 0.116665 0.0
1.75277 0.135415 0.0
1.75277 0.170832 0.0
1.71939 0.187499 0.0
1.686 0.168749 0.0
1.71938 0.152082 0.0
4.12319 0.166666 0.0
4.0898 0.183332 0.0
4.05641 0.164582 0.0
4.05641 0.129166 0.0
4.0898 0.112499 0.0
4.12319 0.131249 0.0
4.0898 0.147916 0.0
4.3235 0.166666 0.0
4.29012 0.183333 0.0
4.25673 0.164583 0.0
4.25673 0.129166 0.0
4.29012 0.112499 0.0
4.3235 0.13125 0.0
4.29012 0.147916 0.0
4.52382 0.166667 0.0
4.49043 0.183333 0.0
4.45705 0.164583 0.0
4.45705 0.129167 0.0
4.49043 0.1125 0.0
4.52382 0.13125 0.0
4.49043 0.147917 0.0
1.48568 0.133332 0.0
1.51907 0.116666 0.0
1.55245 0.135416 0.0
1.55245 0.170832 0.0
1.51907 0.187499 0.0
1.48568 0.168749 0.0
1.51907 0.152082 0.0
4.72414 0.166667 0.0
4.69075 0.183334 0.0
4.65736 0.164584 0.0
4.65736 0.129167 0.0
4.69075 0.112501 0.0
4.72414 0.131251 0.0
4.69075 0.147917 0.0
4.92445 0.166668 0.0
4.89107 0.183335 0.0
4.85768 0.164584 0.0
4.85768 0.129168 0.0
4.89107 0.112501 0.0
4.92445 0.131251 0.0
4.89107 0.147918 0.0
1.28537 0.133333 0.0
1.31875 0.116666 0.0
1.35214 0.135416 0.0
1.35214 0.170833 0.0
1.31875 0.187499 0.0
1.28537 0.168749 0.0
1.31875 0.152083 0.0
5.12477 0.166669 0.0
5.09138 0.183335 0.0
5.058 0.164585 0.0
5.058 0.129169 0.0
5.09138 0.112502 0.0
5.12477 0.131252 0.0
5.09138 0.147919 0.0
1.08505 0.133333 0.0
1.11843 0.116666 0.0
1.15182 0.135416 0.0
1.15182 0.170833 0.0
1.11843 0.187499 0.0
1.08505 0.168749 0.0
1.11843 0.152083 0.0
5.31838 0.167388 0.0
5.28786 0.185814 0.0
5.25699 0.166531 0.0
5.25664 0.128821 0.0
5.28715 0.110394 0.0
5.31803 0.129678 0.0
5.28751 0.148104 0.0
0.884732 0.133333 0.0
0.918118 0.116666 0.0
0.951504 0.135416 0.0
0.951504 0.170833 0.0
0.918118 0.1875 0.0
0.884732 0.16875 0.0
0.918118 0.152083 0.0
0.684415 0.133333 0.0
0.717801 0.116666 0.0
0.751188 0.135416 0.0
0.751188 0.170833 0.0
0.717802 0.1875 0.0
0.684415 0.16875 0.0
0.717801 0.152083 0.0
0.491941 0.131292 0.0
0.522608 0.111553 0.0
0.553279 0.130647 0.0
0.553283 0.169481 0.0
0.522616 0.18922 0.0
0.491945 0.170125 0.0
0.522612 0.150386 0.0
0.58586 0.111209 0.0
0.618445 0.130605 0.0
0.618448 0.169438 0.0
0.585868 0.188876 0.0
0.585864 0.150043 0.0
0.784574 0.116666 0.0
0.81796 0.133333 0.0
0.81796 0.16875 0.0
0.784574 0.1875 0.0
0.784574 0.152083 0.0
5.22428 0.186161 0.0
5.19122 0.168082 0.0
5.19086 0.130372 0.0
5.22357 0.110741 0.0
5.22393 0.148451 0.0
0.98489 0.116666 0.0
1.01828 0.133333 0.0
1.01828 0.168749 0.0
0.98489 0.1875 0.0
0.98489 0.152083 0.0
1.18521 0.116666 0.0
1.21859 0.133333 0.0
1.21859 0.168749 0.0
1.18521 0.187499 0.0
1.18521 0.152083 0.0
5.02461 0.183335 0.0
4.99122 0.166668 0.0
4.99122 0.131252 0.0
5.02461 0.112502 0.0
5.02461 0.147918 0.0
1.38552 0.116666 0.0
1.41891 0.133332 0.0
1.41891 0.168749 0.0
1.38552 0.187499 0.0
1.38552 0.152082 0.0
1.58584 0.116666 0.0
1.61923 0.133332 0.0
1.61923 0.168749 0.0
1.58584 0.187499 0.0
1.58584 0.152082 0.0
4.82429 0.183334 0.0
4.79091 0.166668 0.0
4.79091 0.131251 0.0
4.82429 0.112501 0.0
4.82429 0.147918 0.0
4.62398 0.183334 0.0
4.59059 0.166667 0.0
4.59059 0.13125 0.0
4.62398 0.1125 0.0
4.62398 0.147917 0.0
4.42366 0.183333 0.0
4.39027 0.166666 0.0
4.39027 0.13125 0.0
4.42366 0.1125 0.0
4.42366 0.147916 0.0
4.22334 0.183333 0.0
4.18996 0.166666 0.0
4.18996 0.131249 0.0
4.22334 0.112499 0.0
4.22334 0.147916 0.0
4.02303 0.183332 0.0
3.98964 0.166665 0.0
3.98964 0.131249 0.0
4.02303 0.112499 0.0
4.02303 0.147916 0.0
1.78616 0.116665 0.0
1.81954 0.133332 0.0
1.81954 0.168749 0.0
1.78616 0.187499 0.0
1.78616 0.152082 0.0
3.82271 0.183332 0.0
3.78932 0.166665 0.0
3.78932 0.131248 0.0
3.82271 0.112499 0.0
3.82271 0.147915 0.0
1.98647 0.116665 0.0
2.01986 0.133332 0.0
2.01986 0.168748 0.0
1.98647 0.187499 0.0
1.98647 0.152082 0.0
2.18679 0.116665 0.0
2.22018 0.133332 0.0
2.22018 0.168748 0.0
2.18679 0.187498 0.0
2.18679 0.152082 0.0
3.62239 0.183332 0.0
3.58901 0.166665 0.0
3.58901 0.131248 0.0
3.62239 0.112498 0.0
3.62239 0.147915 0.0
2.38711 0.116665 0.0
2.42049 0.133331 0.0
2.42049 0.168748 0.0
2.38711 0.187498 0.0
2.38711 0.152081 0.0
3.42208 0.183331 0.0
3.38869 0.166665 0.0
3.38869 0.131248 0.0
3.42208 0.112498 0.0
3.42208 0.147915 0.0
2.58742 0.116665 0.0
2.62081 0.133331 0.0
2.62081 0.168748 0.0
2.58742 0.187498 0.0
2.58742 0.152081 0.0
3.2256 0.18581 0.0
3.19508 0.167383 0.0
3.19543 0.129673 0.0
3.22631 0.110389 0.0
3.22595 0.148099 0.0
2.78391 0.114186 0.0
2.81442 0.132613 0.0
2.81407 0.170323 0.0
2.78319 0.189607 0.0
2.78355 0.151896 0.0
5.96019 0.125856 0.0
5.98488 0.137929 0.0
5.93294 0.174536 0.0
5.93423 0.144161 0.0
5.95891 0.156235 0.0
0.048757 0.17442 0.0
0.0243785 0.16221 0.0
0.075256 0.125356 0.0
0.0741958 0.155993 0.0
0.0498173 0.143783 0.0
5.78853 0.11345 0.0
5.81814 0.132953 0.0
5.81851 0.170555 0.0
5.78926 0.188656 0.0
5.7889 0.151053 0.0
0.206402 0.189721 0.0
0.18145 0.16986 0.0
0.180598 0.129891 0.0
0.204698 0.109783 0.0
0.229651 0.129643 0.0
0.230502 0.169612 0.0
0.20555 0.149752 0.0
0.279358 0.168718 0.0
0.255356 0.18915 0.0
0.253653 0.109212 0.0
0.278506 0.128749 0.0
0.254504 0.149181 0.0
5.79243 0.0313224 0.0
5.77567 0.0626348 0.0
5.74229 0.0626336 0.0
5.72566 0.0313198 0.0
5.75904 0.0313209 0.0
0.784574 0.033333 0.0
0.767881 0.0666664 0.0
0.734494 0.0666664 0.0
0.717801 0.0333331 0.0
0.751188 0.033333 0.0
0.585058 0.0306046 0.0
0.569167 0.0612094 0.0
0.535781 0.0612094 0.0
0.518286 0.0306046 0.0
0.551672 0.0306046 0.0
5.2246 0.268082 0.0
5.24098 0.236161 0.0
5.27436 0.236162 0.0
5.29138 0.268082 0.0
5.25799 0.268082 0.0
5.02461 0.266668 0.0
5.0413 0.233335 0.0
5.07469 0.233335 0.0
5.09138 0.266669 0.0
5.058 0.266669 0.0
0.98489 0.0333329 0.0
0.968197 0.0666662 0.0
0.934811 0.0666662 0.0
0.918118 0.0333329 0.0
0.951504 0.0333329 0.0
1.18521 0.0333327 0.0
1.16851 0.066666 0.0
1.13513 0.0666661 0.0
1.11843 0.0333327 0.0
1.15182 0.0333327 0.0
1.38552 0.0333325 0.0
1.36883 0.0666658 0.0
1.33544 0.0666659 0.0
1.31875 0.0333325 0.0
1.35214 0.0333325 0.0
1.58584 0.0333323 0.0
1.56915 0.0666656 0.0
1.53576 0.0666657 0.0
1.51907 0.0333323 0.0
1.55245 0.0333323 0.0
4.02303 0.266666 0.0
4.03972 0.233332 0.0
4.07311 0.233332 0.0
4.0898 0.266666 0.0
4.05641 0.266666 0.0
1.78616 0.033332 0.0
1.76946 0.0666654 0.0
1.73608 0.0666654 0.0
1.71938 0.0333321 0.0
1.75277 0.0333321 0.0
4.82429 0.266668 0.0
4.84099 0.233334 0.0
4.87437 0.233335 0.0
4.89107 0.266668 0.0
4.85768 0.266668 0.0
3.82271 0.266665 0.0
3.8394 0.233332 0.0
3.87279 0.233332 0.0
3.88948 0.266665 0.0