<?xml version="1.0"?>
<VTKFile type="UnstructuredGrid">
  <UnstructuredGrid>
  <Piece NumberOfPoints="1189"  NumberOfCells="232">
    <Points>
      <DataArray type="Float64" NumberOfComponents="3" format="ascii">
0 0 0
6.00191 -1.64142e-06 0
6.00191 0.299994 0
0 0.3 0
0.136407 1.90441e-08 0
0.272814 6.71046e-08 0
0.409221 1.40402e-07 0
0.545628 2.35355e-07 0
0.682035 3.48388e-07 0
0.818442 4.75976e-07 0
0.954848 6.14631e-07 0
1.09126 7.60926e-07 0
1.22766 9.11509e-07 0
1.36407 1.06312e-06 0
1.50048 1.2126e-06 0
1.63688 1.35691e-06 0
1.77329 1.49318e-06 0
1.9097 1.61867e-06 0
2.0461 1.73085e-06 0
2.18251 1.82736e-06 0
2.31892 1.90609e-06 0
2.45532 1.96516e-06 0
2.59173 2.0029e-06 0
2.72814 2.01795e-06 0
2.86454 2.0092e-06 0
3.00095 1.97581e-06 0
3.13736 1.91724e-06 0
3.27377 1.83322e-06 0
3.41017 1.72376e-06 0
3.54658 1.58917e-06 0
3.68299 1.43e-06 0
3.81939 1.24706e-06 0
3.9558 1.04137e-06 0
4.09221 8.14187e-07 0
4.22861 5.66933e-07 0
4.36502 3.01186e-07 0
4.50143 1.86584e-08 0
4.63783 -2.78841e-07 0
4.77424 -5.89452e-07 0
4.91065 -9.11291e-07 0
5.04706 -1.24248e-06 0
5.18346 -1.58118e-06 0
5.31987 -1.92562e-06 0
5.45628 -2.27415e-06 0
5.59268 -2.62647e-06 0
5.72909 -2.99273e-06 0
5.8655 -3.3819e-06 0
0.045469 2.74667e-09 0
0.090938 9.22607e-09 0
0.181876 3.20375e-08 0
0.227345 4.81029e-08 0
0.318283 8.89101e-08 0
0.363752 1.13387e-07 0
0.45469 1.69824e-07 0
0.500159 2.01519e-07 0
0.591097 2.71197e-07 0
0.636566 3.08918e-07 0
0.727504 3.89475e-07 0
0.772973 4.32047e-07 0
0.863911 5.21134e-07 0
0.909379 5.67394e-07 0
1.00032 6.62717e-07 0
1.04579 7.11522e-07 0
1.13672 8.10807e-07 0
1.18219 8.61041e-07 0
1.27313 9.62094e-07 0
1.3186 1.01267e-06 0
1.40954 1.11333e-06 0
1.45501 1.1632e-06 0
1.54595 1.26143e-06 0
1.59141 1.30957e-06 0
1.68235 1.40336e-06 0
1.72782 1.44882e-06 0
1.81876 1.53634e-06 0
1.86423 1.5782e-06 0
1.95517 1.65766e-06 0
2.00063 1.69508e-06 0
2.09157 1.76487e-06 0
2.13704 1.79707e-06 0
2.22798 1.85568e-06 0
2.27345 1.88194e-06 0
2.36439 1.92806e-06 0
2.40986 1.94777e-06 0
2.50079 1.98017e-06 0
2.54626 1.99277e-06 0
2.6372 2.01051e-06 0
2.68267 2.01554e-06 0
2.77361 2.01772e-06 0
2.81908 2.01481e-06 0
2.91001 2.00085e-06 0
2.95548 1.98973e-06 0
3.04642 1.9591e-06 0
3.09189 1.93958e-06 0
3.18283 1.89208e-06 0
3.2283 1.86407e-06 0
3.31923 1.79954e-06 0
3.3647 1.76305e-06 0
3.45564 1.68168e-06 0
3.50111 1.63681e-06 0
3.59205 1.5388e-06 0
3.63752 1.48573e-06 0
3.72846 1.37162e-06 0
3.77392 1.31063e-06 0
3.86486 1.18095e-06 0
3.91033 1.11238e-06 0
4.00127 9.67976e-07 0
4.04674 8.92226e-07 0
4.13768 7.33922e-07 0
4.18314 6.51481e-07 0
4.27408 4.80332e-07 0
4.31955 3.91725e-07 0
4.41049 2.08789e-07 0
4.45596 1.14591e-07 0
4.5469 -7.89327e-08 0
4.59237 -1.7812e-07 0
4.6833 -3.81021e-07 0
4.72877 -4.84581e-07 0
4.81971 -6.95582e-07 0
4.86518 -8.02889e-07 0
4.95612 -1.02074e-06 0
5.00159 -1.13116e-06 0
5.09252 -1.35463e-06 0
5.13799 -1.46756e-06 0
5.22893 -1.69543e-06 0
5.2744 -1.81027e-06 0
5.36534 -2.04142e-06 0
5.41081 -2.15761e-06 0
5.50174 -2.39105e-06 0
5.54721 -2.50842e-06 0
5.63815 -2.74593e-06 0
5.68362 -2.86773e-06 0
5.77456 -3.1246e-06 0
5.82003 -3.25991e-06 0
5.91097 -3.71736e-06 0
5.95644 -3.85755e-06 0
6.00191 0.0749963 0
6.00191 0.149996 0
6.00191 0.224996 0
6.0019 0.0249979 0
6.0019 0.0499969 0
6.0019 0.0999966 0
6.0019 0.124996 0
6.0019 0.174997 0
6.0019 0.199996 0
6.0019 0.249996 0
6.0019 0.274995 0
5.8655 0.299997 0
5.72909 0.299997 0
5.59268 0.299997 0
5.45628 0.299998 0
5.31987 0.299998 0
5.18346 0.299998 0
5.04706 0.299999 0
4.91065 0.299999 0
4.77424 0.299999 0
4.63784 0.3 0
4.50143 0.3 0
4.36502 0.3 0
4.22861 0.300001 0
4.09221 0.300001 0
3.9558 0.300001 0
3.81939 0.300001 0
3.68299 0.300001 0
3.54658 0.300002 0
3.41017 0.300002 0
3.27377 0.300002 0
3.13736 0.300002 0
3.00095 0.300002 0
2.86454 0.300002 0
2.72814 0.300002 0
2.59173 0.300002 0
2.45532 0.300002 0
2.31892 0.300002 0
2.18251 0.300002 0
2.0461 0.300002 0
1.9097 0.300002 0
1.77329 0.300001 0
1.63688 0.300001 0
1.50048 0.300001 0
1.36407 0.300001 0
1.22766 0.300001 0
1.09126 0.300001 0
0.954848 0.300001 0
0.818441 0.3 0
0.682034 0.3 0
0.545627 0.3 0
0.409221 0.3 0
0.272814 0.3 0
0.136407 0.3 0
5.95644 0.299997 0
5.91097 0.299997 0
5.82003 0.299997 0
5.77456 0.299997 0
5.68362 0.299997 0
5.63815 0.299997 0
5.54721 0.299997 0
5.50175 0.299998 0
5.41081 0.299998 0
5.36534 0.299998 0
5.2744 0.299998 0
5.22893 0.299998 0
5.13799 0.299999 0
5.09252 0.299999 0
5.00159 0.299999 0
4.95612 0.299999 0
4.86518 0.299999 0
4.81971 0.299999 0
4.72877 0.3 0
4.6833 0.3 0
4.59237 0.3 0
4.5469 0.3 0
4.45596 0.3 0
4.41049 0.3 0
4.31955 0.3 0
4.27408 0.3 0
4.18315 0.300001 0
4.13768 0.300001 0
4.04674 0.300001 0
4.00127 0.300001 0
3.91033 0.300001 0
3.86486 0.300001 0
3.77392 0.300001 0
3.72846 0.300001 0
3.63752 0.300001 0
3.59205 0.300002 0
3.50111 0.300002 0
3.45564 0.300002 0
3.3647 0.300002 0
3.31923 0.300002 0
3.2283 0.300002 0
3.18283 0.300002 0
3.09189 0.300002 0
3.04642 0.300002 0
2.95548 0.300002 0
2.91001 0.300002 0
2.81908 0.300002 0
2.77361 0.300002 0
2.68267 0.300002 0
2.6372 0.300002 0
2.54626 0.300002 0
2.50079 0.300002 0
2.40986 0.300002 0
2.36439 0.300002 0
2.27345 0.300002 0
2.22798 0.300002 0
2.13704 0.300002 0
2.09157 0.300002 0
2.00063 0.300002 0
1.95517 0.300002 0
1.86423 0.300002 0
1.81876 0.300002 0
1.72782 0.300001 0
1.68235 0.300001 0
1.59141 0.300001 0
1.54594 0.300001 0
1.45501 0.300001 0
1.40954 0.300001 0
1.3186 0.300001 0
1.27313 0.300001 0
1.18219 0.300001 0
1.13672 0.300001 0
1.04579 0.300001 0
1.00032 0.300001 0
0.909379 0.300001 0
0.86391 0.300001 0
0.772972 0.3 0
0.727503 0.3 0
0.636565 0.3 0
0.591096 0.3 0
0.500159 0.3 0
0.45469 0.3 0
0.363752 0.3 0
0.318283 0.3 0
0.227345 0.3 0
0.181876 0.3 0
0.0909379 0.3 0
0.045469 0.3 0
0 0.225 0
0 0.15 0
0 0.075 0
0 0.275 0
0 0.25 0
0 0.2 0
0 0.175 0
0 0.125 0
0 0.1 0
0 0.05 0
0 0.025 0
5.85117 0.149997 0
0.15073 0.15 0
0.344377 0.152387 0
5.66306 0.150369 0
0.613831 0.161313 0
5.25036 0.149028 0
0.886645 0.161314 0
1.15946 0.161314 0
4.97885 0.138686 0
1.43227 0.161314 0
1.70509 0.161314 0
3.8876 0.138688 0
1.9779 0.161315 0
4.16041 0.138688 0
4.70604 0.138687 0
4.43322 0.138687 0
3.61478 0.138688 0
2.25071 0.161315 0
3.34197 0.138689 0
2.52353 0.161315 0
2.79634 0.161315 0
3.06916 0.150002 0
5.50381 0.155406 0
2.93275 0.107018 0
5.115 0.192789 0
0.478096 0.107493 0
1.02305 0.109279 0
0.750238 0.109279 0
4.84245 0.190721 0
1.29587 0.109279 0
4.29682 0.190722 0
4.024 0.190723 0
1.56868 0.109279 0
4.56963 0.190722 0
1.84149 0.10928 0
2.11431 0.10928 0
3.75119 0.190723 0
2.38712 0.10928 0
3.47838 0.190724 0
2.65993 0.10928 0
3.20556 0.192986 0
5.38368 0.105036 0
5.93499 0.10293 0
5.9429 0.204652 0
0.0669155 0.197066 0
0.0590087 0.0953444 0
0.239463 0.102235 0
5.7609 0.102271 0
5.38431 0.207281 0
3.20556 0.0905936 0
2.65993 0.214897 0
3.47838 0.0851063 0
5.11503 0.090424 0
2.38712 0.214897 0
2.11431 0.214897 0
3.75119 0.085106 0
1.84149 0.214897 0
1.56868 0.214897 0
0.750238 0.214896 0
1.02305 0.214896 0
1.29587 0.214896 0
4.024 0.0851056 0
0.477835 0.213803 0
4.84244 0.0851039 0
4.29682 0.0851051 0
4.56963 0.0851045 0
2.93275 0.20941 0
5.76814 0.20299 0
0.234054 0.203137 0
5.6396 0.200245 0
5.61614 0.250121 0
5.56306 0.2518 0
5.53343 0.203603 0
5.55689 0.153727 0
5.60998 0.152048 0
5.58652 0.201924 0
5.61614 0.0501213 0
5.6396 0.100245 0
5.53343 0.103603 0
5.56306 0.0518003 0
5.58652 0.101924 0
5.47212 0.251801 0
5.48797 0.203603 0
5.51759 0.2518 0
5.48796 0.103603 0
5.47212 0.0518006 0
5.51759 0.0518004 0
3.11462 0.0500019 0
3.09189 0.100002 0
3.04642 0.100002 0
3.02369 0.050002 0
3.06916 0.0500019 0
2.75087 0.253773 0
2.77361 0.207544 0
2.81908 0.207544 0
2.84181 0.253773 0
2.79634 0.253773 0
2.47806 0.253773 0
2.50079 0.207544 0
2.54626 0.207544 0
2.569 0.253773 0
2.52353 0.253773 0
3.38744 0.0462307 0
3.3647 0.0924597 0
3.31923 0.0924598 0
3.2965 0.0462308 0
3.34197 0.0462308 0
2.20524 0.253773 0
2.22798 0.207544 0
2.27345 0.207544 0
2.29618 0.253773 0
2.25071 0.253773 0
3.66025 0.0462304 0
3.63752 0.0924594 0
3.59205 0.0924595 0
3.56931 0.0462305 0
3.61478 0.0462305 0
1.93243 0.253773 0
1.95517 0.207544 0
2.00063 0.207544 0
2.02337 0.253773 0
1.9779 0.253773 0
3.93307 0.0462301 0
3.91033 0.0924591 0
3.86486 0.0924591 0
3.84213 0.0462302 0
3.8876 0.0462301 0
1.65962 0.253772 0
1.68235 0.207543 0
1.72782 0.207543 0
1.75056 0.253772 0
1.70509 0.253772 0
4.20588 0.0462296 0
4.18314 0.0924586 0
4.13768 0.0924587 0
4.11494 0.0462298 0
4.16041 0.0462297 0
1.3868 0.253772 0
1.40954 0.207543 0
1.45501 0.207543 0
1.47774 0.253772 0
1.43227 0.253772 0
4.47869 0.046229 0
4.45596 0.0924581 0
4.41049 0.0924582 0
4.38776 0.0462292 0
4.43322 0.0462291 0
4.75151 0.0462284 0
4.72877 0.0924575 0
4.6833 0.0924576 0
4.66057 0.0462287 0
4.70604 0.0462285 0
5.02432 0.0462278 0
5.00159 0.0924568 0
4.95612 0.0924569 0
4.93338 0.046228 0
4.97885 0.0462279 0
1.11399 0.253772 0
1.13672 0.207543 0
1.18219 0.207543 0
1.20493 0.253772 0
1.15946 0.253772 0
5.2967 0.0496746 0
5.27353 0.0993512 0
5.22806 0.0993513 0
5.20576 0.0496749 0
5.25123 0.0496748 0
0.841176 0.253772 0
0.86391 0.207543 0
0.909379 0.207543 0
0.932114 0.253772 0
0.886645 0.253772 0
0.387606 0.0507957 0
0.365991 0.101591 0
0.320522 0.101591 0
0.296668 0.0507957 0
0.342137 0.0507957 0
5.70708 0.050121 0
5.68507 0.100245 0
5.66161 0.0501212 0
0.568362 0.253771 0
0.591097 0.207542 0
0.636565 0.207542 0
0.6593 0.253771 0
0.613831 0.253771 0
5.68507 0.200245 0
5.70708 0.250121 0
5.66161 0.250121 0
5.20576 0.249675 0
5.22806 0.199351 0
5.27353 0.199351 0
5.2967 0.249675 0
5.25123 0.249675 0
0.6593 0.0537713 0
0.636566 0.107542 0
0.591097 0.107542 0
0.568362 0.0537713 0
0.613831 0.0537713 0
0.932114 0.0537716 0
0.909379 0.107543 0
0.86391 0.107543 0
0.841176 0.0537715 0
0.886645 0.0537716 0
0.296668 0.250796 0
0.320522 0.201591 0
0.365991 0.201591 0
0.387606 0.250796 0
0.342137 0.250796 0
4.93338 0.246228 0
4.95612 0.192457 0
5.00159 0.192457 0
5.02432 0.246228 0
4.97885 0.246228 0
1.20493 0.0537719 0
1.18219 0.107543 0
[...]
    <PointData>
      <DataArray type="Float64" NumberOfComponents="2" Name="Displacement" format="ascii">
0 0
0.00190659 -1.64142e-06
0.00190754 -5.85022e-06
0 0
4.32995e-05 1.90441e-08
8.65945e-05 6.71046e-08
0.000129885 1.40402e-07
0.000173172 2.35355e-07
0.000216456 3.48388e-07
0.000259735 4.75976e-07
0.000303011 6.14631e-07
0.000346282 7.60926e-07
0.000389551 9.11509e-07
0.000432816 1.06312e-06
0.000476077 1.2126e-06
0.000519335 1.35691e-06
0.000562591 1.49318e-06
0.000605843 1.61867e-06
0.000649093 1.73085e-06
0.000692341 1.82736e-06
0.000735586 1.90609e-06
0.000778829 1.96516e-06
0.000822071 2.0029e-06
0.000865312 2.01795e-06
0.000908552 2.0092e-06
0.000951791 1.97581e-06
0.00099503 1.91724e-06
0.00103827 1.83322e-06
0.00108151 1.72376e-06
0.00112475 1.58917e-06
0.00116799 1.43e-06
0.00121123 1.24706e-06
0.00125447 1.04137e-06
0.00129772 8.14187e-07
0.00134096 5.66933e-07
0.00138421 3.01186e-07
0.00142746 1.86584e-08
0.00147071 -2.78841e-07
0.00151397 -5.89452e-07
0.00155722 -9.11291e-07
0.00160048 -1.24248e-06
0.00164374 -1.58118e-06
0.00168701 -1.92562e-06
0.00173027 -2.27415e-06
0.00177354 -2.62647e-06
0.0018168 -2.99273e-06
0.00186011 -3.3819e-06
1.44339e-05 2.74667e-09
2.8867e-05 9.22607e-09
5.77316e-05 3.20375e-08
7.21633e-05 4.81029e-08
0.000101025 8.89101e-08
0.000115456 1.13387e-07
0.000144315 1.69824e-07
0.000158744 2.01519e-07
0.000187601 2.71197e-07
0.000202028 3.08918e-07
0.000230882 3.89475e-07
0.000245309 4.32047e-07
0.000274161 5.21134e-07
0.000288586 5.67394e-07
0.000317435 6.62717e-07
0.000331859 7.11522e-07
0.000360706 8.10807e-07
0.000375128 8.61041e-07
0.000403973 9.62094e-07
0.000418394 1.01267e-06
0.000447236 1.11333e-06
0.000461657 1.1632e-06
0.000490497 1.26143e-06
0.000504916 1.30957e-06
0.000533754 1.40336e-06
0.000548173 1.44882e-06
0.000577009 1.53634e-06
0.000591426 1.5782e-06
0.00062026 1.65766e-06
0.000634677 1.69508e-06
0.000663509 1.76487e-06
0.000677925 1.79707e-06
0.000706756 1.85568e-06
0.000721171 1.88194e-06
0.000750001 1.92806e-06
0.000764415 1.94777e-06
0.000793244 1.98017e-06
0.000807658 1.99277e-06
0.000836485 2.01051e-06
0.000850899 2.01554e-06
0.000879725 2.01772e-06
0.000894139 2.01481e-06
0.000922965 2.00085e-06
0.000937378 1.98973e-06
0.000966204 1.9591e-06
0.000980617 1.93958e-06
0.00100944 1.89208e-06
0.00102386 1.86407e-06
0.00105268 1.79954e-06
0.00106709 1.76305e-06
0.00109592 1.68168e-06
0.00111033 1.63681e-06
0.00113916 1.5388e-06
0.00115357 1.48573e-06
0.0011824 1.37162e-06
0.00119681 1.31063e-06
0.00122564 1.18095e-06
0.00124006 1.11238e-06
0.00126889 9.67976e-07
0.0012833 8.92226e-07
0.00131213 7.33922e-07
0.00132655 6.51481e-07
0.00135538 4.80332e-07
0.00136979 3.91725e-07
0.00139863 2.08789e-07
0.00141304 1.14591e-07
0.00144188 -7.89327e-08
0.0014563 -1.7812e-07
0.00148513 -3.81021e-07
0.00149955 -4.84581e-07
0.00152839 -6.95582e-07
0.0015428 -8.02889e-07
0.00157164 -1.02074e-06
0.00158606 -1.13116e-06
0.0016149 -1.35463e-06
0.00162932 -1.46756e-06
0.00165816 -1.69543e-06
0.00167259 -1.81027e-06
0.00170143 -2.04142e-06
0.00171585 -2.15761e-06
0.00174469 -2.39105e-06
0.00175911 -2.50842e-06
0.00178796 -2.74593e-06
0.00180238 -2.86773e-06
0.00183123 -3.1246e-06
0.00184566 -3.25991e-06
0.00187452 -3.71736e-06
0.00188981 -3.85755e-06
0.0019052 -3.67569e-06
0.00190602 -3.67801e-06
0.00190577 -3.72998e-06
0.00190304 -2.12681e-06
0.00190273 -3.10086e-06
0.00190265 -3.35489e-06
0.00190277 -3.97824e-06
0.00190287 -3.37086e-06
0.00190289 -4.07564e-06
0.00190319 -4.20008e-06
0.00190361 -5.26257e-06
0.0018609 -3.28579e-06
0.00181758 -2.96509e-06
0.00177431 -2.6252e-06
0.00173104 -2.27455e-06
0.00168777 -1.92572e-06
0.00164449 -1.58117e-06
0.00160122 -1.24247e-06
0.00155794 -9.11293e-07
0.00151466 -5.89461e-07
0.00147138 -2.78842e-07
0.0014281 1.8657e-08
0.00138481 3.01181e-07
0.00134152 5.66922e-07
0.00129824 8.14176e-07
0.00125495 1.04136e-06
0.00121165 1.24704e-06
0.00116836 1.42998e-06
0.00112507 1.58915e-06
0.00108178 1.72374e-06
0.00103848 1.8332e-06
0.000995187 1.91723e-06
0.000951893 1.97582e-06
0.000908599 2.00921e-06
0.000865307 2.01797e-06
0.000822015 2.00292e-06
0.000778725 1.96517e-06
0.000735437 1.90611e-06
0.000692151 1.82737e-06
0.000648867 1.73086e-06
0.000605585 1.61868e-06
0.000562307 1.49319e-06
0.000519031 1.35692e-06
0.000475758 1.21261e-06
0.000432489 1.06313e-06
0.000389223 9.11516e-07
0.000345961 7.60932e-07
0.000302702 6.14635e-07
0.000259447 4.75979e-07
0.000216196 3.48391e-07
0.000172949 2.35353e-07
0.000129705 1.40402e-07
8.64661e-05 6.71039e-08
4.32307e-05 1.90471e-08
0.00189056 -3.22547e-06
0.00187528 -3.19601e-06
0.00184644 -3.16763e-06
0.001832 -3.06817e-06
0.00180315 -2.8545e-06
0.00178873 -2.74089e-06
0.00175989 -2.50845e-06
0.00174546 -2.39148e-06
0.00171661 -2.15789e-06
0.00170219 -2.0416e-06
0.00167334 -1.81031e-06
0.00165892 -1.69545e-06
0.00163007 -1.46755e-06
0.00161564 -1.35463e-06
0.00158679 -1.13115e-06
0.00157237 -1.02074e-06
0.00154351 -8.0288e-07
0.00152909 -6.95582e-07
0.00150023 -4.84582e-07
0.00148581 -3.8102e-07
0.00145695 -1.78124e-07
0.00144252 -7.89372e-08
0.00141367 1.14585e-07
0.00139924 2.0878e-07
0.00137038 3.91718e-07
0.00135595 4.80318e-07
0.00132709 6.51476e-07
0.00131267 7.33913e-07
0.00128381 8.92211e-07
0.00126938 9.67956e-07
0.00124052 1.11237e-06
0.00122609 1.18094e-06
0.00119722 1.31061e-06
0.00118279 1.3716e-06
0.00115393 1.48572e-06
0.0011395 1.53879e-06
0.00111064 1.63679e-06
0.00109621 1.68166e-06
0.00106734 1.76304e-06
0.00105291 1.79953e-06
0.00102405 1.86405e-06
0.00100962 1.89206e-06
0.000980755 1.93958e-06
0.000966324 1.9591e-06
0.000937461 1.98974e-06
0.00092303 2.00086e-06
0.000894168 2.01483e-06
0.000879737 2.01773e-06
0.000850876 2.01556e-06
0.000836445 2.01053e-06
0.000807585 1.99278e-06
0.000793155 1.98018e-06
0.000764296 1.94779e-06
0.000749866 1.92808e-06
0.000721008 1.88196e-06
0.000706579 1.85569e-06
0.000677722 1.79709e-06
0.000663294 1.76489e-06
0.000634439 1.69509e-06
0.000620012 1.65767e-06
0.000591159 1.57822e-06
0.000576732 1.53636e-06
0.000547881 1.44883e-06
0.000533456 1.40337e-06
0.000504606 1.30958e-06
0.000490182 1.26144e-06
0.000461335 1.1632e-06
0.000446912 1.11334e-06
0.000418066 1.01268e-06
0.000403644 9.62103e-07
0.000374802 8.61047e-07
0.000360381 8.10813e-07
0.000331541 7.11527e-07
0.000317121 6.62722e-07
0.000288283 5.67396e-07
0.000273865 5.21135e-07
0.00024503 4.32051e-07
0.000230613 3.89478e-07
0.00020178 3.0892e-07
0.000187364 2.71197e-07
0.000158534 2.01521e-07
0.000144119 1.69826e-07
0.000115292 1.13387e-07
0.000100879 8.89115e-08
7.20538e-05 4.81005e-08
5.76421e-05 3.20363e-08
2.88198e-05 9.22477e-09
1.44095e-05 2.74803e-09
0 0
0 0
0 0
0 0
0 0
0 0
0 0
0 0
0 0
0 0
0 0
0.00185588 -3.29627e-06
4.7808e-05 2.28145e-08
0.000109227 1.02638e-07
0.00179625 -2.80787e-06
0.000194684 2.8983e-07
0.00166534 -1.74949e-06
0.000281212 5.44132e-07
0.000367742 8.35884e-07
0.00157919 -1.07583e-06
0.000454273 1.13831e-06
0.000540805 1.42622e-06
0.00123306 1.14696e-06
0.000627338 1.67656e-06
0.00131959 6.92958e-07
0.00149265 -4.32628e-07
0.00140612 1.61902e-07
0.00114653 1.51258e-06
0.000713872 1.86906e-06
0.00106 1.78162e-06
0.000800407 1.98677e-06
0.000886943 2.0166e-06
0.000973475 1.94967e-06
0.00174575 -2.39658e-06
0.000930198 1.99562e-06
0.00162251 -1.41034e-06
0.000151669 1.85864e-07
0.000324531 6.87033e-07
0.000237995 4.1058e-07
0.00153604 -7.49091e-07
0.000411064 9.87387e-07
0.00136296 4.36261e-07
0.00127641 9.30368e-07
0.000497592 1.28558e-06
0.0014495 -1.28339e-07
0.000584118 1.55743e-06
0.000670641 1.7812e-06
0.00118986 1.34142e-06
0.000757161 1.93819e-06
0.00110331 1.65956e-06
0.00084368 2.01334e-06
0.00101677 1.8784e-06
0.00170751 -2.08828e-06
0.00188222 -3.54758e-06
0.001885 -3.50531e-06
2.12189e-05 5.48561e-09
1.87215e-05 4.43531e-09
7.597e-05 5.28848e-08
0.00182716 -3.07446e-06
0.00170797 -2.09001e-06
0.0010167 1.87841e-06
0.00084367 2.01335e-06
0.00110321 1.65957e-06
0.00162227 -1.41044e-06
0.000757117 1.9382e-06
0.000670568 1.78121e-06
0.00118972 1.34143e-06
0.000584023 1.55744e-06
0.000497483 1.28559e-06
0.000237899 4.10582e-07
0.000324421 6.87037e-07
0.000410949 9.87393e-07
0.00127623 9.30378e-07
0.000151516 1.85683e-07
0.0015358 -7.49094e-07
0.00136275 4.36268e-07
0.00144927 -1.28335e-07
0.000930223 1.99563e-06
0.00182972 -3.06469e-06
7.42172e-05 5.07252e-08
0.00178894 -2.74551e-06
0.00178162 -2.68508e-06
0.00176479 -2.54916e-06
0.00175527 -2.47294e-06
0.00176258 -2.53339e-06
0.00177942 -2.67049e-06
0.0017721 -2.60952e-06
0.00178111 -2.68787e-06
0.00178868 -2.7488e-06
0.00175501 -2.47285e-06
0.00176427 -2.54948e-06
0.00177184 -2.61024e-06
0.00173594 -2.31525e-06
0.00174084 -2.35592e-06
0.00175036 -2.43222e-06
0.00174059 -2.35568e-06
0.00173543 -2.31486e-06
0.00174985 -2.43191e-06
0.000987848 1.92876e-06
0.000980663 1.93957e-06
0.000966244 1.95909e-06
0.000959016 1.9678e-06
0.000973432 1.94968e-06
0.000872522 2.01818e-06
0.000879734 2.01773e-06
0.000894159 2.01482e-06
0.000901378 2.01236e-06
0.00088695 2.01661e-06
0.000785955 1.97297e-06
0.000793182 1.98017e-06
0.000807608 1.99278e-06
0.00081481 1.99816e-06
0.000800383 1.98678e-06
0.00107434 1.74375e-06
0.00106717 1.76304e-06
0.00105275 1.79953e-06
0.00104551 1.81673e-06
0.00105992 1.78164e-06
0.000699393 1.84178e-06
0.000706634 1.85568e-06
0.000721058 1.88194e-06
0.000728247 1.8943e-06
0.00071382 1.86908e-06
0.00116084 1.4582e-06
0.00115368 1.48573e-06
0.00113927 1.53879e-06
0.001132 1.56432e-06
0.00114642 1.5126e-06
0.000612838 1.63837e-06
0.000620089 1.65766e-06
0.000634513 1.69508e-06
0.000641689 1.71318e-06
0.000627263 1.67658e-06
0.00124734 1.07717e-06
0.0012402 1.11237e-06
0.00122578 1.18095e-06
0.0012185 1.21432e-06
0.00123292 1.14697e-06
0.00052629 1.38026e-06
0.000533548 1.40337e-06
0.000547971 1.44882e-06
0.000555138 1.47115e-06
0.000540714 1.42623e-06
0.00133384 6.09466e-07
0.00132672 6.51476e-07
0.0013123 7.33916e-07
0.00130501 7.74329e-07
0.00131942 6.92967e-07
0.000439751 1.08827e-06
0.000447012 1.11333e-06
0.000461434 1.1632e-06
0.000468596 1.18797e-06
0.000454173 1.13832e-06
0.00142035 6.68372e-08
0.00141324 1.14587e-07
0.00139882 2.08783e-07
0.00139151 2.55214e-07
0.00140593 1.61909e-07
0.00150686 -5.36856e-07
0.00149976 -4.84578e-07
0.00148534 -3.81019e-07
0.00147803 -3.29755e-07
0.00149244 -4.32632e-07
0.00159339 -1.18671e-06
0.00158629 -1.13116e-06
0.00157187 -1.02074e-06
0.00156454 -9.65888e-07
0.00157897 -1.07583e-06
0.000353221 7.85819e-07
0.000360481 8.10807e-07
0.000374903 8.61042e-07
0.000382063 8.86257e-07
0.000367642 8.35891e-07
0.00167978 -1.86678e-06
0.00167256 -1.80806e-06
0.00165814 -1.69324e-06
0.00165094 -1.63713e-06
0.00166536 -1.75168e-06
0.000266701 4.9841e-07
0.000273957 5.21134e-07
0.000288377 5.67394e-07
0.00029554 5.909e-07
0.000281121 5.44134e-07
0.000122996 1.27252e-07
0.00011611 1.14659e-07
0.000101686 9.0053e-08
9.41413e-05 7.82026e-08
0.000108569 1.01426e-07
0.00180995 -2.93115e-06
0.0018031 -2.86902e-06
0.00179553 -2.80812e-06
0.000180192 2.53031e-07
0.000187437 2.71196e-07
0.000201857 3.08919e-07
0.000209028 3.28445e-07
0.00019461 2.89831e-07
0.00180336 -2.86075e-06
0.00181047 -2.91262e-06
0.00179605 -2.80013e-06
0.00165144 -1.63713e-06
0.00165839 -1.69324e-06
0.00167281 -1.80809e-06
0.00168029 -1.86684e-06
0.00166586 -1.7517e-06
0.000209196 3.28443e-07
0.000201939 3.08918e-07
0.000187515 2.71195e-07
0.000180345 2.53031e-07
0.00019477 2.8983e-07
0.000295743 5.90897e-07
0.000288477 5.67393e-07
0.000274054 5.21132e-07
0.000266895 4.98408e-07
0.000281319 5.44132e-07
9.40505e-05 7.82035e-08
0.000101637 9.00535e-08
0.000116056 1.14658e-07
0.000122882 1.27251e-07
0.000108466 1.01427e-07
0.00156502 -9.6589e-07
0.00157211 -1.02073e-06
0.00158653 -1.13115e-06
0.00159387 -1.1867e-06
0.00157945 -1.07583e-06
0.00038228 8.86252e-07
0.000375011 8.61038e-07
0.000360589 8.10803e-07
0.000353436 7.85813e-07
0.000367858 8.35885e-07
0.000468809 1.18796e-06
0.000461541 1.16319e-06
0.00044712 1.11333e-06
0.000439967 1.08826e-06
0.000454388 1.13831e-06
0.00055533 1.47114e-06
0.000548068 1.44882e-06
0.000533647 1.40336e-06
0.00052649 1.38026e-06
0.00054091 1.42622e-06
0.00121879 1.2143e-06
0.00122593 1.18094e-06
0.00124035 1.11237e-06
0.00124765 1.07716e-06
0.00123322 1.14696e-06
0.000641843 1.71317e-06
0.000634591 1.69507e-06
0.000620171 1.65765e-06
0.000613006 1.63835e-06
0.000627425 1.67656e-06
0.00130536 7.74319e-07
0.00131247 7.3391e-07
0.0013269 6.51471e-07
0.00133421 6.09457e-07
0.00131978 6.9296e-07
0.00113223 1.56431e-06
0.00113938 1.53878e-06
0.0011538 1.48572e-06
0.00116108 1.45818e-06
0.00114665 1.51259e-06
0.00147847 -3.29753e-07
0.00148556 -3.81017e-07
0.00149999 -4.84579e-07
0.00150732 -5.3686e-07
0.0014929 -4.32631e-07
0.00139192 2.55208e-07
0.00139902 2.08779e-07
0.00141344 1.14583e-07
0.00142077 6.68326e-08
0.00140634 1.61902e-07
0.00072835 1.89428e-06
0.000721112 1.88193e-06
0.000706692 1.85567e-06
0.000699515 1.84177e-06
0.000713933 1.86906e-06
0.00104566 1.81671e-06
0.00105283 1.79952e-06
0.00106725 1.76303e-06
0.00107451 1.74374e-06
0.00106008 1.78163e-06
0.000814853 1.99815e-06
0.000807631 1.99277e-06
0.000793212 1.98016e-06
0.000786019 1.97296e-06
0.000800436 1.98677e-06
0.000901352 2.01234e-06
0.000894149 2.01481e-06
0.00087973 2.01771e-06
0.000872519 2.01817e-06
0.000886936 2.0166e-06
0.00095909 1.96781e-06
0.000966284 1.95909e-06
0.000980709 1.93957e-06
0.000987946 1.92876e-06
0.000973518 1.94969e-06
0.000959048 1.9678e-06
0.000944622 1.98311e-06
0.000937398 1.98972e-06
0.000944595 1.98312e-06
0.00095182 1.9758e-06
0.000915765 2.00537e-06
0.00092298 2.00084e-06
0.000915782 2.00536e-06
0.000901364 2.01234e-06
0.000908566 2.00919e-06
0.000137148 1.54965e-07
0.00014441 1.70124e-07
0.000137521 1.55836e-07
0.000123373 1.28052e-07
0.000130259 1.41238e-07
0.00163716 -1.52406e-06
0.00162983 -1.46711e-06
0.00163678 -1.52275e-06
0.00165106 -1.63582e-06
0.00164411 -1.57986e-06
0.000180348 2.53208e-07
0.000166009 2.18508e-07
0.000158835 2.01841e-07
0.000166003 2.18344e-07
0.000173176 2.35524e-07
0.000223636 3.68737e-07
0.000230816 3.89472e-07
0.000223557 3.68736e-07
0.00020912 3.28442e-07
0.000216377 3.48387e-07
0.000266808 4.98408e-07
0.000252402 4.53848e-07
0.000245241 4.32045e-07
0.000252487 4.53849e-07
0.000259648 4.75973e-07
0.000310184 6.38576e-07
0.000317358 6.62714e-07
0.000310091 6.38573e-07
0.000295651 5.90897e-07
0.000302917 6.14628e-07
0.00159363 -1.18649e-06
0.00160807 -1.29802e-06
0.00161541 -1.35419e-06
0.00160831 -1.29823e-06
0.00160097 -1.24225e-06
0.000353339 7.85812e-07
0.000338935 7.36154e-07
0.000331781 7.1152e-07
0.000339031 7.36156e-07
0.000346185 7.60923e-07
0.000396721 9.36794e-07
0.000403893 9.62091e-07
0.000396623 9.36793e-07
0.000382182 8.86252e-07
0.000389452 9.11507e-07
0.00043987 1.08826e-06
0.000425467 1.03791e-06
0.000418314 1.01267e-06
0.000425565 1.03792e-06
0.000432717 1.06312e-06
0.000483248 1.23709e-06
0.00049042 1.26142e-06
0.000483153 1.23709e-06
0.000468713 1.18796e-06
0.000475981 1.21259e-06
0.00155064 -8.56953e-07
0.00154334 -8.02883e-07
0.00155043 -8.56951e-07
0.00156481 -9.65884e-07
0.00155772 -9.1129e-07
0.0005264 1.38026e-06
0.000511996 1.33334e-06
0.000504841 1.30956e-06
0.000512088 1.33335e-06
0.000519243 1.35691e-06
0.000569765 1.51492e-06
0.000576941 1.53634e-06
0.000569681 1.51491e-06
0.000555243 1.47114e-06
0.000562505 1.49317e-06
0.00124751 1.07716e-06
0.00126196 1.00495e-06
0.00126926 9.67954e-07
0.0012621 1.00495e-06
0.0012548 1.04135e-06
0.00129096 8.53476e-07
0.00128368 8.92207e-07
0.0012908 8.53475e-07
0.0013052 7.74321e-07
0.00129808 8.14174e-07
0.00120439 1.27915e-06
0.00119712 1.3106e-06
0.00120426 1.27914e-06
0.00121866 1.2143e-06
0.00121153 1.24703e-06
0.00133404 6.09456e-07
0.0013485 5.23871e-07
0.00135581 4.80317e-07
0.00134867 5.23874e-07
0.00134135 5.66919e-07
0.00150712 -5.36856e-07
0.00152158 -6.42369e-07
0.00152892 -6.95582e-07
0.00152179 -6.4237e-07
0.00151445 -5.89458e-07
0.00137752 3.46687e-07
0.00137024 3.91714e-07
0.00137735 3.46684e-07
0.00139173 2.55208e-07
0.00138463 3.01178e-07
0.00146408 -2.28297e-07
0.00145679 -1.78128e-07
0.00146389 -2.28299e-07
0.00147827 -3.29752e-07
0.00147118 -2.78844e-07
0.00061293 1.63835e-06
0.000598524 1.59861e-06
0.000591361 1.5782e-06
0.000598602 1.59861e-06
0.000605765 1.61866e-06
0.000656274 1.74808e-06
0.000663457 1.76487e-06
0.000656208 1.74807e-06
0.000641774 1.71317e-06
0.000649025 1.73084e-06
0.00142058 6.68335e-08
0.00143504 -2.9937e-08
0.00144237 -7.89372e-08
0.00143523 -2.99363e-08
0.0014279 1.86554e-08
0.00116097 1.45818e-06
0.00117542 1.40111e-06
0.0011827 1.3716e-06
0.00117553 1.40112e-06
0.00116825 1.42998e-06
0.00111782 1.61331e-06
0.00111056 1.63678e-06
0.00111772 1.6133e-06
0.00113213 1.5643e-06
0.00112497 1.58914e-06
0.00069946 1.84176e-06
0.00068505 1.81245e-06
0.000677875 1.79706e-06
0.000685109 1.81246e-06
0.000692283 1.82735e-06
0.000742776 1.91735e-06
0.000749968 1.92805e-06
0.000742733 1.91735e-06
0.000728304 1.89428e-06
0.000735541 1.90608e-06
0.00078599 1.97296e-06
0.000771575 1.95674e-06
0.000764386 1.94776e-06
0.000771609 1.95675e-06
0.000778798 1.96515e-06
0.000829272 2.00702e-06
0.000836475 2.0105e-06
0.000829258 2.00701e-06
0.000814834 1.99815e-06
0.000822054 2.00289e-06
0.00107444 1.74373e-06
0.00108887 1.70304e-06
0.00109614 1.68165e-06
0.00108896 1.70305e-06
0.00108169 1.72374e-06
0.00103124 1.84898e-06
0.001024 1.86404e-06
0.00103118 1.84897e-06
0.00104559 1.81671e-06
0.00103842 1.83319e-06
0.00087252 2.01816e-06
0.000858099 2.01706e-06
0.000850893 2.01553e-06
0.000858104 2.01707e-06
0.00086531 2.01794e-06
0.000987904 1.92875e-06
0.00100234 1.90499e-06
0.00100958 1.89206e-06
0.00100238 1.905e-06
0.000995142 1.91722e-06
0.000901368 2.01234e-06
0.000915795 2.00536e-06
0.000923017 2.00086e-06
0.000915809 2.00538e-06
0.000908587 2.0092e-06
0.00104557 1.81671e-06
0.00103113 1.84898e-06
0.00102389 1.86406e-06
0.00103108 1.849e-06
0.00103832 1.83321e-06
0.000814826 1.99815e-06
0.000829247 2.00702e-06
0.000836453 2.01052e-06
0.000829235 2.00704e-06
0.000822029 2.00291e-06
0.000728285 1.89429e-06
0.0007427 1.91735e-06
0.000749892 1.92807e-06
0.000742665 1.91737e-06
0.000735474 1.9061e-06
0.00113209 1.56431e-06
0.00111765 1.61331e-06
0.00111039 1.6368e-06
0.00111757 1.61333e-06
0.00112483 1.58916e-06
0.000641747 1.71317e-06
0.000656157 1.74808e-06
0.000663335 1.76488e-06
0.000656102 1.7481e-06
0.000648923 1.73085e-06
0.00121861 1.21431e-06
0.00120417 1.27914e-06
0.00119689 1.31062e-06
0.00120406 1.27916e-06
0.00121133 1.24705e-06
0.00055521 1.47114e-06
0.000569616 1.51492e-06
0.000576785 1.53635e-06
0.000569546 1.51493e-06
0.000562378 1.49318e-06
0.00130514 7.74323e-07
0.00129068 8.5348e-07
0.0012834 8.92221e-07
0.00129056 8.53488e-07
0.00129785 8.14183e-07
0.00139166 2.55209e-07
0.00137721 3.46686e-07
0.00136991 3.91723e-07
0.00137706 3.46692e-07
0.00138436 3.01182e-07
0.00147819 -3.29753e-07
0.00146373 -2.28298e-07
0.00145642 -1.78121e-07
0.00146357 -2.28292e-07
0.00147088 -2.78844e-07
0.000468676 1.18796e-06
0.000483079 1.23709e-06
0.000490242 1.26143e-06
0.000483 1.2371e-06
0.000475838 1.2126e-06
0.00156472 -9.65885e-07
0.00155026 -8.56953e-07
0.00154294 -8.02886e-07
0.00155008 -8.56956e-07
0.0015574 -9.1129e-07
0.000382144 8.86254e-07
0.000396547 9.36797e-07
0.000403707 9.621e-07
0.000396465 9.36803e-07
0.000389305 9.11512e-07
0.00165098 -1.63585e-06
0.00163662 -1.52281e-06
0.00162943 -1.46718e-06
0.00163658 -1.5241e-06
0.00164378 -1.57989e-06
0.000295616 5.90898e-07
0.000310019 6.38575e-07
0.000317181 6.6272e-07
0.000309941 6.38581e-07
0.000302779 6.14632e-07
0.00020909 3.28443e-07
0.000223496 3.68737e-07
0.000230664 3.89476e-07
0.00022343 3.6874e-07
0.000216261 3.48389e-07
0.000123325 1.28e-07
0.000137422 1.55723e-07
0.000144244 1.70009e-07
0.000136974 1.5491e-07
0.000130151 1.41183e-07
0.000165806 2.1828e-07
0.000158662 2.01718e-07
0.000165904 2.1838e-07
0.000180293 2.53139e-07
0.000173049 2.35457e-07
0.000252265 4.53853e-07
0.000245083 4.32049e-07
0.000252336 4.5385e-07
0.000266774 4.98409e-07
0.000259519 4.75976e-07
0.000944668 1.98313e-06
0.000937445 1.98973e-06
0.000944643 1.98311e-06
0.00095906 1.9678e-06