# vtk DataFile Version 2.0
FEM, Created by Wutzow
ASCII
DATASET UNSTRUCTURED_GRID
POINTS 1189 Float64
0 0 0
6.00952 4.59653e-07 0
6.00952 0.29998 0
0 0.3 0
0.13658 4.87681e-08 0
0.273159 1.68851e-07 0
0.409739 3.49666e-07 0
0.546319 5.81349e-07 0
0.682898 8.54288e-07 0
0.819478 1.15909e-06 0
0.956057 1.48666e-06 0
1.09264 1.82818e-06 0
1.22922 2.17515e-06 0
1.3658 2.51944e-06 0
1.50238 2.85329e-06 0
1.63896 3.16937e-06 0
1.77553 3.46084e-06 0
1.91211 3.72133e-06 0
2.04869 3.94506e-06 0
2.18527 4.12678e-06 0
2.32185 4.26191e-06 0
2.45843 4.34647e-06 0
2.59501 4.37718e-06 0
2.73159 4.35141e-06 0
2.86817 4.26727e-06 0
3.00475 4.12354e-06 0
3.14133 3.91973e-06 0
3.27791 3.65599e-06 0
3.41449 3.33319e-06 0
3.55107 2.95282e-06 0
3.68765 2.517e-06 0
3.82423 2.0284e-06 0
3.96081 1.49019e-06 0
4.09739 9.06015e-07 0
4.23397 2.7987e-07 0
4.37055 -3.83907e-07 0
4.50713 -1.0808e-06 0
4.6437 -1.80612e-06 0
4.78028 -2.55518e-06 0
4.91686 -3.32331e-06 0
5.05344 -4.10605e-06 0
5.19002 -4.89916e-06 0
5.3266 -5.69867e-06 0
5.46318 -6.50095e-06 0
5.59976 -7.30883e-06 0
5.73634 -8.17673e-06 0
5.87292 -9.15195e-06 0
0.0455266 7.256e-09 0
0.0910531 2.38891e-08 0
0.182106 8.14273e-08 0
0.227633 1.21581e-07 0
0.318686 2.22864e-07 0
0.364212 2.83257e-07 0
0.455265 4.21724e-07 0
0.500792 4.9907e-07 0
0.591845 6.68212e-07 0
0.637372 7.59307e-07 0
0.728425 9.52807e-07 0
0.773951 1.05452e-06 0
0.865004 1.26619e-06 0
0.910531 1.37549e-06 0
1.00158 1.59938e-06 0
1.04711 1.71333e-06 0
1.13816 1.94363e-06 0
1.18369 2.05939e-06 0
1.27474 2.29061e-06 0
1.32027 2.40547e-06 0
1.41132 2.63224e-06 0
1.45685 2.74362e-06 0
1.5479 2.96099e-06 0
1.59343 3.06643e-06 0
1.68448 3.26958e-06 0
1.73001 3.36681e-06 0
1.82106 3.55143e-06 0
1.86659 3.63833e-06 0
1.95764 3.80025e-06 0
2.00317 3.87489e-06 0
2.09422 4.01056e-06 0
2.13975 4.07119e-06 0
2.2308 4.1772e-06 0
2.27633 4.22229e-06 0
2.36738 4.29592e-06 0
2.41291 4.32415e-06 0
2.50396 4.36282e-06 0
2.54949 4.37309e-06 0
2.64054 4.375e-06 0
2.68606 4.36643e-06 0
2.77712 4.32991e-06 0
2.82264 4.30187e-06 0
2.9137 4.22605e-06 0
2.95922 4.17814e-06 0
3.05028 4.06227e-06 0
3.0958 3.99433e-06 0
3.18686 3.83848e-06 0
3.23238 3.75056e-06 0
3.32344 3.55487e-06 0
3.36896 3.44725e-06 0
3.46002 3.21274e-06 0
3.50554 3.08592e-06 0
3.59659 2.81357e-06 0
3.64212 2.66826e-06 0
3.73317 2.35988e-06 0
3.7787 2.19697e-06 0
3.86975 1.85432e-06 0
3.91528 1.67487e-06 0
4.00633 1.3004e-06 0
4.05186 1.10563e-06 0
4.14291 7.01744e-07 0
4.18844 4.92975e-07 0
4.27949 6.25906e-08 0
4.32502 -1.58726e-07 0
4.41607 -6.12763e-07 0
4.4616 -8.45118e-07 0
4.55265 -1.31964e-06 0
4.59818 -1.56148e-06 0
4.68923 -2.0534e-06 0
4.73476 -2.30315e-06 0
4.82581 -2.80934e-06 0
4.87134 -3.06544e-06 0
4.96239 -3.58281e-06 0
5.00792 -3.84377e-06 0
5.09897 -4.36948e-06 0
5.1445 -4.6339e-06 0
5.23555 -5.16513e-06 0
5.28108 -5.43168e-06 0
5.37213 -5.96594e-06 0
5.41766 -6.23337e-06 0
5.50871 -6.76878e-06 0
5.55424 -7.0377e-06 0
5.64529 -7.58594e-06 0
5.69081 -7.87374e-06 0
5.78187 -8.51309e-06 0
5.82739 -8.8659e-06 0
5.91845 -1.04998e-05 0
5.96398 -1.08762e-05 0
6.00951 0.0749903 0
6.00951 0.14999 0
6.00951 0.22499 0
6.0095 0.024998 0
6.0095 0.0499932 0
6.0095 0.0999919 0
6.0095 0.124989 0
6.0095 0.174992 0
6.0095 0.199988 0
6.0095 0.249988 0
6.0095 0.274982 0
5.87292 0.299991 0
5.73634 0.299992 0
5.59976 0.299993 0
5.46318 0.299993 0
5.3266 0.299994 0
5.19002 0.299995 0
5.05344 0.299996 0
4.91687 0.299997 0
4.78029 0.299997 0
4.64371 0.299998 0
4.50713 0.299999 0
4.37055 0.3 0
4.23397 0.3 0
4.09739 0.300001 0
3.96081 0.300001 0
3.82423 0.300002 0
3.68765 0.300003 0
3.55107 0.300003 0
3.41449 0.300003 0
3.27791 0.300004 0
3.14133 0.300004 0
3.00475 0.300004 0
2.86817 0.300004 0
2.73159 0.300004 0
2.59501 0.300004 0
2.45843 0.300004 0
2.32185 0.300004 0
2.18527 0.300004 0
2.04869 0.300004 0
1.91211 0.300004 0
1.77553 0.300003 0
1.63895 0.300003 0
1.50237 0.300003 0
1.3658 0.300003 0
1.22922 0.300002 0
1.09264 0.300002 0
0.956057 0.300001 0
0.819477 0.300001 0
0.682898 0.300001 0
0.546318 0.300001 0
0.409738 0.3 0
0.273159 0.3 0
0.136579 0.3 0
5.96398 0.299992 0
5.91845 0.299992 0
5.8274 0.299992 0
5.78187 0.299992 0
5.69082 0.299992 0
5.64529 0.299992 0
5.55424 0.299993 0
5.50871 0.299993 0
5.41766 0.299994 0
5.37213 0.299994 0
5.28108 0.299995 0
5.23555 0.299995 0
5.1445 0.299995 0
5.09897 0.299996 0
5.00792 0.299996 0
4.96239 0.299996 0
4.87134 0.299997 0
4.82581 0.299997 0
4.73476 0.299998 0
4.68923 0.299998 0
4.59818 0.299998 0
4.55265 0.299999 0
4.4616 0.299999 0
4.41607 0.299999 0
4.32502 0.3 0
4.27949 0.3 0
4.18844 0.3 0
4.14291 0.300001 0
4.05186 0.300001 0
4.00633 0.300001 0
3.91528 0.300002 0
3.86976 0.300002 0
3.7787 0.300002 0
3.73318 0.300002 0
3.64212 0.300003 0
3.5966 0.300003 0
3.50554 0.300003 0
3.46002 0.300003 0
3.36896 0.300003 0
3.32344 0.300004 0
3.23238 0.300004 0
3.18686 0.300004 0
3.0958 0.300004 0
3.05028 0.300004 0
2.95922 0.300004 0
2.9137 0.300004 0
2.82264 0.300004 0
2.77712 0.300004 0
2.68606 0.300004 0
2.64054 0.300004 0
2.54949 0.300004 0
2.50396 0.300004 0
2.41291 0.300004 0
2.36738 0.300004 0
2.27633 0.300004 0
2.2308 0.300004 0
2.13975 0.300004 0
2.09422 0.300004 0
2.00317 0.300004 0
1.95764 0.300004 0
1.86659 0.300004 0
1.82106 0.300004 0
1.73001 0.300003 0
1.68448 0.300003 0
1.59343 0.300003 0
1.5479 0.300003 0
1.45685 0.300003 0
1.41132 0.300003 0
1.32027 0.300002 0
1.27474 0.300002 0
1.18369 0.300002 0
1.13816 0.300002 0
1.04711 0.300002 0
1.00158 0.300002 0
0.91053 0.300001 0
0.865004 0.300001 0
0.773951 0.300001 0
0.728424 0.300001 0
0.637371 0.300001 0
0.591845 0.300001 0
0.500792 0.3 0
0.455265 0.3 0
0.364212 0.3 0
0.318685 0.3 0
0.227632 0.3 0
0.182106 0.3 0
0.091053 0.3 0
0.0455265 0.3 0
0 0.225 0
0 0.15 0
0 0.075 0
0 0.275 0
0 0.25 0
0 0.2 0
0 0.175 0
0 0.125 0
0 0.1 0
0 0.05 0
0 0.025 0
5.85858 0.149991 0
0.15092 0.15 0
0.344812 0.152387 0
5.67023 0.150364 0
0.614608 0.161314 0
5.257 0.149024 0
0.887767 0.161314 0
1.16093 0.161315 0
4.98515 0.138683 0
1.43409 0.161316 0
1.70724 0.161316 0
3.89252 0.138689 0
1.9804 0.161317 0
4.16568 0.138688 0
4.712 0.138685 0
4.43884 0.138686 0
3.61936 0.13869 0
2.25356 0.161317 0
3.3462 0.13869 0
2.52672 0.161317 0
2.79988 0.161317 0
3.07304 0.150004 0
5.51078 0.155402 0
2.93646 0.10702 0
5.12147 0.192786 0
0.478701 0.107493 0
1.02435 0.10928 0
0.751188 0.109279 0
4.84857 0.190719 0
1.29751 0.10928 0
4.30226 0.190722 0
4.0291 0.190723 0
1.57067 0.109281 0
4.57542 0.19072 0
1.84382 0.109282 0
2.11698 0.109282 0
3.75594 0.190724 0
2.39014 0.109282 0
3.48278 0.190725 0
2.6633 0.109283 0
3.20962 0.192988 0
5.39049 0.105032 0
5.9425 0.102924 0
5.95042 0.204646 0
0.0670002 0.197066 0
0.0590834 0.0953444 0
0.239766 0.102235 0
5.76819 0.102265 0
5.39112 0.207277 0
3.20962 0.0905955 0
2.6633 0.2149 0
3.48278 0.0851078 0
5.12151 0.0904209 0
2.39014 0.2149 0
2.11698 0.214899 0
3.75594 0.0851069 0
1.84382 0.214899 0
1.57066 0.214898 0
0.751187 0.214896 0
1.02435 0.214897 0
1.29751 0.214898 0
4.0291 0.0851058 0
0.47844 0.213803 0
4.84857 0.0851017 0
4.30226 0.0851046 0
4.57542 0.0851032 0
2.93646 0.209412 0
5.77544 0.202985 0
0.23435 0.203137 0
5.64674 0.20024 0
5.62325 0.250117 0
5.5701 0.251796 0
5.54044 0.203599 0
5.56393 0.153723 0
5.61708 0.152043 0
5.59359 0.20192 0
5.62325 0.0501165 0
5.64674 0.10024 0
5.54044 0.103599 0
5.5701 0.0517957 0
5.59359 0.10192 0
5.47905 0.251796 0
5.49491 0.203599 0
5.52457 0.251796 0
5.49491 0.103599 0
5.47905 0.0517963 0
5.52457 0.051796 0
3.11857 0.050004 0
3.0958 0.100004 0
3.05028 0.100004 0
3.02751 0.0500041 0
3.07304 0.050004 0
2.75435 0.253775 0
2.77712 0.207546 0
2.82264 0.207546 0
2.84541 0.253775 0
2.79988 0.253775 0
2.4812 0.253775 0
2.50396 0.207546 0
2.54949 0.207546 0
2.57225 0.253775 0
2.52672 0.253775 0
3.39173 0.0462324 0
3.36896 0.0924614 0
3.32344 0.0924615 0
3.30067 0.0462326 0
3.3462 0.0462325 0
2.20804 0.253775 0
2.2308 0.207546 0
2.27633 0.207546 0
2.29909 0.253775 0
2.25356 0.253775 0
3.66488 0.0462316 0
3.64212 0.0924606 0
3.5966 0.0924608 0
3.57383 0.0462319 0
3.61936 0.0462317 0
1.93488 0.253775 0
1.95764 0.207546 0
2.00317 0.207546 0
2.02593 0.253775 0
1.9804 0.253775 0
3.93804 0.0462306 0
3.91528 0.0924596 0
3.86975 0.0924598 0
3.84699 0.0462309 0
3.89252 0.0462307 0
1.66172 0.253774 0
1.68448 0.207545 0
1.73001 0.207545 0
1.75277 0.253774 0
1.70724 0.253774 0
4.2112 0.0462294 0
4.18844 0.0924585 0
4.14291 0.0924587 0
4.12015 0.0462298 0
4.16568 0.0462296 0
1.38856 0.253774 0
1.41132 0.207545 0
1.45685 0.207545 0
1.47961 0.253774 0
1.43409 0.253774 0
4.48436 0.046228 0
4.4616 0.0924571 0
4.41607 0.0924573 0
4.39331 0.0462285 0
4.43884 0.0462283 0
4.75752 0.0462266 0
4.73476 0.0924557 0
4.68923 0.0924559 0
4.66647 0.0462271 0
4.71199 0.0462268 0
5.03068 0.046225 0
5.00792 0.0924541 0
4.96239 0.0924544 0
4.93963 0.0462255 0
4.98515 0.0462253 0
1.1154 0.253773 0
1.13816 0.207544 0
1.18369 0.207544 0
1.20645 0.253773 0
1.16093 0.253773 0
5.3034 0.0496709 0
5.2802 0.0993476 0
5.23468 0.0993478 0
5.21235 0.0496715 0
5.25788 0.0496712 0
0.84224 0.253772 0
0.865004 0.207543 0
0.91053 0.207543 0
0.933293 0.253772 0
0.887767 0.253772 0
0.388097 0.0507959 0
0.366455 0.101592 0
0.320928 0.101591 0
0.297044 0.0507958 0
0.34257 0.0507959 0
5.7143 0.0501159 0
5.69227 0.10024 0
5.66878 0.0501162 0
0.569081 0.253772 0
0.591845 0.207543 0
0.637371 0.207543 0
0.660134 0.253772 0
0.614608 0.253772 0
5.69227 0.20024 0
5.7143 0.250116 0
5.66878 0.250116 0
5.21235 0.249671 0
5.23468 0.199348 0
5.2802 0.199348 0
5.3034 0.249671 0
5.25788 0.249671 0
0.660135 0.0537718 0
0.637371 0.107543 0
0.591845 0.107543 0
0.569082 0.0537716 0
0.614608 0.0537717 0
0.933294 0.0537725 0
0.910531 0.107543 0
0.865004 0.107543 0
0.842241 0.0537722 0
0.887767 0.0537723 0
0.297043 0.250796 0
0.320928 0.201591 0
0.366454 0.201592 0
0.388096 0.250796 0
0.34257 0.250796 0
4.93963 0.246226 0
4.96239 0.192454 0
5.00792 0.192454 0
5.03068 0.246225 0
4.98515 0.246225 0
1.20645 0.0537731 0
1.18369 0.107544 0
1.13816 0.107544 0
1.1154 0.0537729 0
1.16093 0.053773 0
[...]
CELL_DATA 232
POINT_DATA 1189
VECTORS Y Float64
0 0 0.0
6.00952 4.59653e-07 0.0
6.00952 0.29998 0.0
0 0.3 0.0
0.13658 4.87681e-08 0.0
0.273159 1.68851e-07 0.0
0.409739 3.49666e-07 0.0
0.546319 5.81349e-07 0.0
0.682898 8.54288e-07 0.0
0.819478 1.15909e-06 0.0
0.956057 1.48666e-06 0.0
1.09264 1.82818e-06 0.0
1.22922 2.17515e-06 0.0
1.3658 2.51944e-06 0.0
1.50238 2.85329e-06 0.0
1.63896 3.16937e-06 0.0
1.77553 3.46084e-06 0.0
1.91211 3.72133e-06 0.0
2.04869 3.94506e-06 0.0
2.18527 4.12678e-06 0.0
2.32185 4.26191e-06 0.0
2.45843 4.34647e-06 0.0
2.59501 4.37718e-06 0.0
2.73159 4.35141e-06 0.0
2.86817 4.26727e-06 0.0
3.00475 4.12354e-06 0.0
3.14133 3.91973e-06 0.0
3.27791 3.65599e-06 0.0
3.41449 3.33319e-06 0.0
3.55107 2.95282e-06 0.0
3.68765 2.517e-06 0.0
3.82423 2.0284e-06 0.0
3.96081 1.49019e-06 0.0
4.09739 9.06015e-07 0.0
4.23397 2.7987e-07 0.0
4.37055 -3.83907e-07 0.0
4.50713 -1.0808e-06 0.0
4.6437 -1.80612e-06 0.0
4.78028 -2.55518e-06 0.0
4.91686 -3.32331e-06 0.0
5.05344 -4.10605e-06 0.0
5.19002 -4.89916e-06 0.0
5.3266 -5.69867e-06 0.0
5.46318 -6.50095e-06 0.0
5.59976 -7.30883e-06 0.0
5.73634 -8.17673e-06 0.0
5.87292 -9.15195e-06 0.0
0.0455266 7.256e-09 0.0
0.0910531 2.38891e-08 0.0
0.182106 8.14273e-08 0.0
0.227633 1.21581e-07 0.0
0.318686 2.22864e-07 0.0
0.364212 2.83257e-07 0.0
0.455265 4.21724e-07 0.0
0.500792 4.9907e-07 0.0
0.591845 6.68212e-07 0.0
0.637372 7.59307e-07 0.0
0.728425 9.52807e-07 0.0
0.773951 1.05452e-06 0.0
0.865004 1.26619e-06 0.0
0.910531 1.37549e-06 0.0
1.00158 1.59938e-06 0.0
1.04711 1.71333e-06 0.0
1.13816 1.94363e-06 0.0
1.18369 2.05939e-06 0.0
1.27474 2.29061e-06 0.0
1.32027 2.40547e-06 0.0
1.41132 2.63224e-06 0.0
1.45685 2.74362e-06 0.0
1.5479 2.96099e-06 0.0
1.59343 3.06643e-06 0.0
1.68448 3.26958e-06 0.0
1.73001 3.36681e-06 0.0
1.82106 3.55143e-06 0.0
1.86659 3.63833e-06 0.0
1.95764 3.80025e-06 0.0
2.00317 3.87489e-06 0.0
2.09422 4.01056e-06 0.0
2.13975 4.07119e-06 0.0
2.2308 4.1772e-06 0.0
2.27633 4.22229e-06 0.0
2.36738 4.29592e-06 0.0
2.41291 4.32415e-06 0.0
2.50396 4.36282e-06 0.0
2.54949 4.37309e-06 0.0
2.64054 4.375e-06 0.0
2.68606 4.36643e-06 0.0
2.77712 4.32991e-06 0.0
2.82264 4.30187e-06 0.0
2.9137 4.22605e-06 0.0
2.95922 4.17814e-06 0.0
3.05028 4.06227e-06 0.0
3.0958 3.99433e-06 0.0
3.18686 3.83848e-06 0.0
3.23238 3.75056e-06 0.0
3.32344 3.55487e-06 0.0
3.36896 3.44725e-06 0.0
3.46002 3.21274e-06 0.0
3.50554 3.08592e-06 0.0
3.59659 2.81357e-06 0.0
3.64212 2.66826e-06 0.0
3.73317 2.35988e-06 0.0
3.7787 2.19697e-06 0.0
3.86975 1.85432e-06 0.0
3.91528 1.67487e-06 0.0
4.00633 1.3004e-06 0.0
4.05186 1.10563e-06 0.0
4.14291 7.01744e-07 0.0
4.18844 4.92975e-07 0.0
4.27949 6.25906e-08 0.0
4.32502 -1.58726e-07 0.0
4.41607 -6.12763e-07 0.0
4.4616 -8.45118e-07 0.0
4.55265 -1.31964e-06 0.0
4.59818 -1.56148e-06 0.0
4.68923 -2.0534e-06 0.0
4.73476 -2.30315e-06 0.0
4.82581 -2.80934e-06 0.0
4.87134 -3.06544e-06 0.0
4.96239 -3.58281e-06 0.0
5.00792 -3.84377e-06 0.0
5.09897 -4.36948e-06 0.0
5.1445 -4.6339e-06 0.0
5.23555 -5.16513e-06 0.0
5.28108 -5.43168e-06 0.0
5.37213 -5.96594e-06 0.0
5.41766 -6.23337e-06 0.0
5.50871 -6.76878e-06 0.0
5.55424 -7.0377e-06 0.0
5.64529 -7.58594e-06 0.0
5.69081 -7.87374e-06 0.0
5.78187 -8.51309e-06 0.0
5.82739 -8.8659e-06 0.0
5.91845 -1.04998e-05 0.0
5.96398 -1.08762e-05 0.0
6.00951 0.0749903 0.0
6.00951 0.14999 0.0
6.00951 0.22499 0.0
6.0095 0.024998 0.0
6.0095 0.0499932 0.0
6.0095 0.0999919 0.0
6.0095 0.124989 0.0
6.0095 0.174992 0.0
6.0095 0.199988 0.0
6.0095 0.249988 0.0
6.0095 0.274982 0.0
5.87292 0.299991 0.0
5.73634 0.299992 0.0
5.59976 0.299993 0.0
5.46318 0.299993 0.0
5.3266 0.299994 0.0
5.19002 0.299995 0.0
5.05344 0.299996 0.0
4.91687 0.299997 0.0
4.78029 0.299997 0.0
4.64371 0.299998 0.0
4.50713 0.299999 0.0
4.37055 0.3 0.0
4.23397 0.3 0.0
4.09739 0.300001 0.0
3.96081 0.300001 0.0
3.82423 0.300002 0.0
3.68765 0.300003 0.0
3.55107 0.300003 0.0
3.41449 0.300003 0.0
3.27791 0.300004 0.0
3.14133 0.300004 0.0
3.00475 0.300004 0.0
2.86817 0.300004 0.0
2.73159 0.300004 0.0
2.59501 0.300004 0.0
2.45843 0.300004 0.0
2.32185 0.300004 0.0
2.18527 0.300004 0.0
2.04869 0.300004 0.0
1.91211 0.300004 0.0
1.77553 0.300003 0.0
1.63895 0.300003 0.0
1.50237 0.300003 0.0
1.3658 0.300003 0.0
1.22922 0.300002 0.0
1.09264 0.300002 0.0
0.956057 0.300001 0.0
0.819477 0.300001 0.0
0.682898 0.300001 0.0
0.546318 0.300001 0.0
0.409738 0.3 0.0
0.273159 0.3 0.0
0.136579 0.3 0.0
5.96398 0.299992 0.0
5.91845 0.299992 0.0
5.8274 0.299992 0.0
5.78187 0.299992 0.0
5.69082 0.299992 0.0
5.64529 0.299992 0.0
5.55424 0.299993 0.0
5.50871 0.299993 0.0
5.41766 0.299994 0.0
5.37213 0.299994 0.0
5.28108 0.299995 0.0
5.23555 0.299995 0.0
5.1445 0.299995 0.0
5.09897 0.299996 0.0
5.00792 0.299996 0.0
4.96239 0.299996 0.0
4.87134 0.299997 0.0
4.82581 0.299997 0.0
4.73476 0.299998 0.0
4.68923 0.299998 0.0
4.59818 0.299998 0.0
4.55265 0.299999 0.0
4.4616 0.299999 0.0
4.41607 0.299999 0.0
4.32502 0.3 0.0
4.27949 0.3 0.0
4.18844 0.3 0.0
4.14291 0.300001 0.0
4.05186 0.300001 0.0
4.00633 0.300001 0.0
3.91528 0.300002 0.0
3.86976 0.300002 0.0
3.7787 0.300002 0.0
3.73318 0.300002 0.0
3.64212 0.300003 0.0
3.5966 0.300003 0.0
3.50554 0.300003 0.0
3.46002 0.300003 0.0
3.36896 0.300003 0.0
3.32344 0.300004 0.0
3.23238 0.300004 0.0
3.18686 0.300004 0.0
3.0958 0.300004 0.0
3.05028 0.300004 0.0
2.95922 0.300004 0.0
2.9137 0.300004 0.0
2.82264 0.300004 0.0
2.77712 0.300004 0.0
2.68606 0.300004 0.0
2.64054 0.300004 0.0
2.54949 0.300004 0.0
2.50396 0.300004 0.0
2.41291 0.300004 0.0
2.36738 0.300004 0.0
2.27633 0.300004 0.0
2.2308 0.300004 0.0
2.13975 0.300004 0.0
2.09422 0.300004 0.0
2.00317 0.300004 0.0
1.95764 0.300004 0.0
1.86659 0.300004 0.0
1.82106 0.300004 0.0
1.73001 0.300003 0.0
1.68448 0.300003 0.0
1.59343 0.300003 0.0
1.5479 0.300003 0.0
1.45685 0.300003 0.0
1.41132 0.300003 0.0
1.32027 0.300002 0.0
1.27474 0.300002 0.0
1.18369 0.300002 0.0
1.13816 0.300002 0.0
1.04711 0.300002 0.0
1.00158 0.300002 0.0
0.91053 0.300001 0.0
0.865004 0.300001 0.0
0.773951 0.300001 0.0
0.728424 0.300001 0.0
0.637371 0.300001 0.0
0.591845 0.300001 0.0
0.500792 0.3 0.0
0.455265 0.3 0.0
0.364212 0.3 0.0
0.318685 0.3 0.0
0.227632 0.3 0.0
0.182106 0.3 0.0
0.091053 0.3 0.0
0.0455265 0.3 0.0
0 0.225 0.0
0 0.15 0.0
0 0.075 0.0
0 0.275 0.0
0 0.25 0.0
0 0.2 0.0
0 0.175 0.0
0 0.125 0.0
0 0.1 0.0
0 0.05 0.0
0 0.025 0.0
5.85858 0.149991 0.0
0.15092 0.15 0.0
0.344812 0.152387 0.0
5.67023 0.150364 0.0
0.614608 0.161314 0.0
5.257 0.149024 0.0
0.887767 0.161314 0.0
1.16093 0.161315 0.0
4.98515 0.138683 0.0
1.43409 0.161316 0.0
1.70724 0.161316 0.0
3.89252 0.138689 0.0
1.9804 0.161317 0.0
4.16568 0.138688 0.0
4.712 0.138685 0.0
4.43884 0.138686 0.0
3.61936 0.13869 0.0
2.25356 0.161317 0.0
3.3462 0.13869 0.0
2.52672 0.161317 0.0
2.79988 0.161317 0.0
3.07304 0.150004 0.0
5.51078 0.155402 0.0
2.93646 0.10702 0.0
5.12147 0.192786 0.0
0.478701 0.107493 0.0
1.02435 0.10928 0.0
0.751188 0.109279 0.0
4.84857 0.190719 0.0
1.29751 0.10928 0.0
4.30226 0.190722 0.0
4.0291 0.190723 0.0
1.57067 0.109281 0.0
4.57542 0.19072 0.0
1.84382 0.109282 0.0
2.11698 0.109282 0.0
3.75594 0.190724 0.0
2.39014 0.109282 0.0
3.48278 0.190725 0.0
2.6633 0.109283 0.0
3.20962 0.192988 0.0
5.39049 0.105032 0.0
5.9425 0.102924 0.0
5.95042 0.204646 0.0
0.0670002 0.197066 0.0
0.0590834 0.0953444 0.0
0.239766 0.102235 0.0
5.76819 0.102265 0.0
5.39112 0.207277 0.0
3.20962 0.0905955 0.0
2.6633 0.2149 0.0
3.48278 0.0851078 0.0
5.12151 0.0904209 0.0
2.39014 0.2149 0.0
2.11698 0.214899 0.0
3.75594 0.0851069 0.0
1.84382 0.214899 0.0
1.57066 0.214898 0.0
0.751187 0.214896 0.0
1.02435 0.214897 0.0
1.29751 0.214898 0.0
4.0291 0.0851058 0.0
0.47844 0.213803 0.0
4.84857 0.0851017 0.0
4.30226 0.0851046 0.0
4.57542 0.0851032 0.0
2.93646 0.209412 0.0
5.77544 0.202985 0.0
0.23435 0.203137 0.0
5.64674 0.20024 0.0
5.62325 0.250117 0.0
5.5701 0.251796 0.0
5.54044 0.203599 0.0
5.56393 0.153723 0.0
5.61708 0.152043 0.0
5.59359 0.20192 0.0
5.62325 0.0501165 0.0
5.64674 0.10024 0.0
5.54044 0.103599 0.0
5.5701 0.0517957 0.0
5.59359 0.10192 0.0
5.47905 0.251796 0.0
5.49491 0.203599 0.0
5.52457 0.251796 0.0
5.49491 0.103599 0.0
5.47905 0.0517963 0.0
5.52457 0.051796 0.0
3.11857 0.050004 0.0
3.0958 0.100004 0.0
3.05028 0.100004 0.0
3.02751 0.0500041 0.0
3.07304 0.050004 0.0
2.75435 0.253775 0.0
2.77712 0.207546 0.0
2.82264 0.207546 0.0
2.84541 0.253775 0.0
2.79988 0.253775 0.0
2.4812 0.253775 0.0
2.50396 0.207546 0.0
2.54949 0.207546 0.0
2.57225 0.253775 0.0
2.52672 0.253775 0.0
3.39173 0.0462324 0.0
3.36896 0.0924614 0.0
3.32344 0.0924615 0.0
3.30067 0.0462326 0.0
3.3462 0.0462325 0.0
2.20804 0.253775 0.0
2.2308 0.207546 0.0
2.27633 0.207546 0.0
2.29909 0.253775 0.0
2.25356 0.253775 0.0
3.66488 0.0462316 0.0
3.64212 0.0924606 0.0
3.5966 0.0924608 0.0
3.57383 0.0462319 0.0
3.61936 0.0462317 0.0
1.93488 0.253775 0.0
1.95764 0.207546 0.0
2.00317 0.207546 0.0
2.02593 0.253775 0.0
1.9804 0.253775 0.0
3.93804 0.0462306 0.0
3.91528 0.0924596 0.0
3.86975 0.0924598 0.0
3.84699 0.0462309 0.0
3.89252 0.0462307 0.0
1.66172 0.253774 0.0
1.68448 0.207545 0.0
1.73001 0.207545 0.0
1.75277 0.253774 0.0
1.70724 0.253774 0.0
4.2112 0.0462294 0.0
4.18844 0.0924585 0.0
4.14291 0.0924587 0.0
4.12015 0.0462298 0.0
4.16568 0.0462296 0.0
1.38856 0.253774 0.0
1.41132 0.207545 0.0
1.45685 0.207545 0.0
1.47961 0.253774 0.0
1.43409 0.253774 0.0
4.48436 0.046228 0.0
4.4616 0.0924571 0.0
4.41607 0.0924573 0.0
4.39331 0.0462285 0.0
4.43884 0.0462283 0.0
4.75752 0.0462266 0.0
4.73476 0.0924557 0.0
4.68923 0.0924559 0.0
4.66647 0.0462271 0.0
4.71199 0.0462268 0.0
5.03068 0.046225 0.0
5.00792 0.0924541 0.0
4.96239 0.0924544 0.0
4.93963 0.0462255 0.0
4.98515 0.0462253 0.0
1.1154 0.253773 0.0
1.13816 0.207544 0.0
1.18369 0.207544 0.0
1.20645 0.253773 0.0
1.16093 0.253773 0.0
5.3034 0.0496709 0.0
5.2802 0.0993476 0.0
5.23468 0.0993478 0.0
5.21235 0.0496715 0.0
5.25788 0.0496712 0.0
0.84224 0.253772 0.0
0.865004 0.207543 0.0
0.91053 0.207543 0.0
0.933293 0.253772 0.0
0.887767 0.253772 0.0
0.388097 0.0507959 0.0
0.366455 0.101592 0.0
0.320928 0.101591 0.0
0.297044 0.0507958 0.0
0.34257 0.0507959 0.0
5.7143 0.0501159 0.0
5.69227 0.10024 0.0
5.66878 0.0501162 0.0
0.569081 0.253772 0.0
0.591845 0.207543 0.0
0.637371 0.207543 0.0
0.660134 0.253772 0.0
0.614608 0.253772 0.0
5.69227 0.20024 0.0
5.7143 0.250116 0.0
5.66878 0.250116 0.0
5.21235 0.249671 0.0
5.23468 0.199348 0.0
5.2802 0.199348 0.0
5.3034 0.249671 0.0
5.25788 0.249671 0.0
0.660135 0.0537718 0.0
0.637371 0.107543 0.0
0.591845 0.107543 0.0
0.569082 0.0537716 0.0
0.614608 0.0537717 0.0
0.933294 0.0537725 0.0
0.910531 0.107543 0.0
0.865004 0.107543 0.0
0.842241 0.0537722 0.0
0.887767 0.0537723 0.0
0.297043 0.250796 0.0
0.320928 0.201591 0.0
0.366454 0.201592 0.0
0.388096 0.250796 0.0
0.34257 0.250796 0.0
4.93963 0.246226 0.0
4.96239 0.192454 0.0
5.00792 0.192454 0.0
5.03068 0.246225 0.0
4.98515 0.246225 0.0
1.20645 0.0537731 0.0
1.18369 0.107544 0.0
1.13816 0.107544 0.0
1.1154 0.0537729 0.0
1.16093 0.053773 0.0
1.47961 0.0537738 0.0
1.45685 0.107545 0.0
1.41132 0.107545 0.0
1.38856 0.0537736 0.0
1.43409 0.0537737 0.0
1.75277 0.0537744 0.0
1.73001 0.107545 0.0
1.68448 0.107545 0.0
1.66172 0.0537742 0.0
1.70724 0.0537743 0.0
3.84699 0.246231 0.0
3.86975 0.19246 0.0
3.91528 0.19246 0.0
3.93804 0.246231 0.0
3.89252 0.246231 0.0
2.02593 0.0537749 0.0
2.00317 0.107546 0.0
1.95764 0.107546 0.0
1.93488 0.0537748 0.0
1.9804 0.0537749 0.0
4.12015 0.24623 0.0
4.14291 0.192459 0.0
4.18844 0.192458 0.0
4.2112 0.246229 0.0
4.16568 0.24623 0.0
3.57383 0.246232 0.0
3.5966 0.192461 0.0
3.64212 0.192461 0.0
3.66489 0.246232 0.0
3.61936 0.246232 0.0
4.66647 0.246227 0.0
4.68923 0.192456 0.0
4.73476 0.192456 0.0
4.75752 0.246227 0.0
4.712 0.246227 0.0
4.39331 0.246228 0.0
4.41607 0.192457 0.0
4.4616 0.192457 0.0
4.48436 0.246228 0.0
4.43884 0.246228 0.0
2.29909 0.0537753 0.0
2.27633 0.107546 0.0
2.2308 0.107546 0.0
2.20804 0.0537752 0.0
2.25356 0.0537752 0.0
3.30067 0.246233 0.0
3.32344 0.192462 0.0
3.36896 0.192461 0.0
3.39173 0.246232 0.0
3.3462 0.246232 0.0
2.57225 0.0537754 0.0
2.54949 0.107546 0.0
2.50396 0.107546 0.0
2.4812 0.0537754 0.0
2.52672 0.0537754 0.0
2.84541 0.0537753 0.0
2.82264 0.107546 0.0
2.77712 0.107546 0.0
2.75435 0.0537754 0.0
2.79988 0.0537753 0.0
3.02751 0.250004 0.0
3.05028 0.200004 0.0
3.0958 0.200004 0.0
3.11857 0.250004 0.0
3.07304 0.250004 0.0
3.02751 0.135676 0.0
2.98199 0.121348 0.0
2.95922 0.0713479 0.0
2.98199 0.035676 0.0
3.00475 0.085676 0.0
2.89093 0.0356761 0.0
2.9137 0.0713479 0.0
2.89093 0.125119 0.0
2.84541 0.143218 0.0
2.86817 0.0894471 0.0
0.432726 0.0358314 0.0
0.455714 0.0716624 0.0
0.434072 0.122458 0.0
0.389442 0.137423 0.0
0.411084 0.0866269 0.0
5.16717 0.264259 0.0
5.14432 0.228522 0.0
5.16665 0.178199 0.0
5.21183 0.163611 0.0
5.1895 0.213935 0.0
0.569306 0.143374 0.0
0.524004 0.125433 0.0
0.50124 0.0716624 0.0
0.523779 0.0358315 0.0
0.546543 0.0896026 0.0
0.705661 0.036427 0.0
0.728425 0.0728531 0.0
0.705661 0.126624 0.0
0.660135 0.143969 0.0
0.682898 0.0901979 0.0
0.842241 0.143969 0.0
0.796714 0.126624 0.0
0.773951 0.0728532 0.0
0.796714 0.0364272 0.0
0.819478 0.0901982 0.0
0.978821 0.0364276 0.0
1.00158 0.0728537 0.0
0.97882 0.126625 0.0
0.933294 0.14397 0.0
0.956057 0.0901986 0.0
5.03059 0.156717 0.0
5.07603 0.174752 0.0
5.0988 0.228523 0.0
5.07612 0.264259 0.0
5.05336 0.210488 0.0
1.1154 0.14397 0.0
1.06987 0.126625 0.0
1.04711 0.0728538 0.0
1.06987 0.0364278 0.0
1.09264 0.0901989 0.0
1.25198 0.0364283 0.0
1.27474 0.0728544 0.0
1.25198 0.126625 0.0
1.20645 0.14397 0.0
1.22922 0.0901992 0.0
1.38856 0.143971 0.0
1.34303 0.126626 0.0
1.32027 0.0728545 0.0
1.34303 0.0364285 0.0
1.3658 0.0901996 0.0
1.52514 0.036429 0.0
1.5479 0.0728551 0.0
1.52514 0.126626 0.0
1.47961 0.143971 0.0
1.50238 0.0901999 0.0
4.8941 0.263571 0.0
4.87134 0.227145 0.0
4.8941 0.173374 0.0
4.93963 0.156028 0.0
4.91686 0.2098 0.0
1.66172 0.143971 0.0
1.61619 0.126626 0.0
1.59343 0.0728552 0.0
1.61619 0.0364292 0.0
1.63895 0.0902002 0.0
1.7983 0.0364296 0.0
1.82106 0.0728557 0.0
1.7983 0.126627 0.0
1.75277 0.143972 0.0
1.77553 0.0902005 0.0
3.93804 0.156033 0.0
3.98357 0.173378 0.0
4.00633 0.227149 0.0
3.98357 0.263575 0.0
3.96081 0.209804 0.0
4.07462 0.263575 0.0
4.05186 0.227149 0.0
4.07462 0.173378 0.0
4.12015 0.156033 0.0
4.09739 0.209804 0.0
3.80147 0.263576 0.0
3.7787 0.22715 0.0
3.80146 0.173379 0.0
3.84699 0.156034 0.0
3.82423 0.209805 0.0
4.2112 0.156032 0.0
4.25673 0.173377 0.0
4.27949 0.227148 0.0
4.25673 0.263574 0.0
4.23397 0.209803 0.0
4.75752 0.156029 0.0
4.80305 0.173374 0.0
4.82581 0.227145 0.0
4.80305 0.263571 0.0
4.78029 0.2098 0.0
4.34778 0.263574 0.0
4.32502 0.227148 0.0
4.34778 0.173377 0.0
4.39331 0.156031 0.0
4.37055 0.209803 0.0
4.62094 0.263572 0.0
4.59818 0.227146 0.0
4.62094 0.173375 0.0
4.66647 0.15603 0.0
4.64371 0.209801 0.0
1.93488 0.143972 0.0
1.88935 0.126627 0.0
1.86659 0.0728557 0.0
1.88935 0.0364297 0.0
1.91211 0.0902008 0.0
2.07146 0.03643 0.0
2.09422 0.0728561 0.0
2.07146 0.126627 0.0
2.02593 0.143972 0.0
2.04869 0.090201 0.0
4.48436 0.156031 0.0
4.52989 0.173376 0.0
4.55265 0.227147 0.0
4.52989 0.263573 0.0
4.50713 0.209802 0.0
3.66489 0.156035 0.0
3.71041 0.173379 0.0
3.73318 0.22715 0.0
3.71041 0.263576 0.0
3.68765 0.209805 0.0
3.52831 0.263577 0.0
3.50554 0.227151 0.0
3.52831 0.17338 0.0
3.57383 0.156035 0.0
3.55107 0.209806 0.0
2.20804 0.143972 0.0
2.16251 0.126627 0.0
2.13975 0.0728562 0.0
2.16251 0.0364301 0.0
2.18527 0.0902012 0.0
2.34462 0.0364303 0.0
2.36738 0.0728564 0.0
2.34462 0.126627 0.0
2.29909 0.143972 0.0
2.32185 0.0902013 0.0
2.4812 0.143972 0.0
2.43567 0.126627 0.0
2.41291 0.0728564 0.0
2.43567 0.0364304 0.0
2.45843 0.0902014 0.0
2.61778 0.0364304 0.0
2.64054 0.0728565 0.0
2.61778 0.126627 0.0
2.57225 0.143972 0.0
2.59501 0.0902014 0.0
3.39173 0.156035 0.0
3.43725 0.17338 0.0
3.46002 0.227151 0.0
3.43725 0.263577 0.0
3.41449 0.209806 0.0
3.25515 0.264332 0.0
3.23238 0.22866 0.0
3.25515 0.174889 0.0
3.30067 0.15679 0.0
3.27791 0.210561 0.0
2.75435 0.143972 0.0
2.70883 0.126627 0.0
2.68606 0.0728565 0.0
2.70883 0.0364304 0.0
2.73159 0.0902014 0.0
3.11857 0.164332 0.0
3.16409 0.17866 0.0
3.18686 0.22866 0.0
3.16409 0.264332 0.0
3.14133 0.214332 0.0
2.84541 0.177349 0.0
2.89093 0.193381 0.0
2.9137 0.23961 0.0
2.89093 0.269807 0.0
2.86817 0.223578 0.0
3.30067 0.122659 0.0
3.25515 0.106627 0.0
3.23238 0.0603982 0.0
3.25515 0.0302009 0.0
3.27791 0.0764299 0.0
2.57225 0.179178 0.0
2.61778 0.197039 0.0
2.64054 0.243268 0.0
2.61778 0.271636 0.0
2.59501 0.225407 0.0
2.29909 0.179178 0.0
2.34462 0.197039 0.0
2.36738 0.243268 0.0
2.34462 0.271636 0.0
2.32185 0.225407 0.0
3.57383 0.120829 0.0
3.52831 0.102968 0.0
3.50554 0.0567395 0.0
3.52831 0.0283712 0.0
3.55107 0.0746001 0.0
2.02593 0.179178 0.0
2.07146 0.197039 0.0
2.09422 0.243268 0.0
2.07146 0.271636 0.0
2.04869 0.225407 0.0
3.84699 0.120828 0.0
3.80146 0.102968 0.0
3.7787 0.0567386 0.0
3.80146 0.0283703 0.0
3.82423 0.0745992 0.0
1.75277 0.179177 0.0
1.7983 0.197038 0.0
1.82106 0.243267 0.0
1.7983 0.271635 0.0
1.77553 0.225406 0.0
4.12015 0.120827 0.0
4.07462 0.102966 0.0
4.05186 0.0567375 0.0
4.07462 0.0283692 0.0
4.09739 0.0745981 0.0
4.39331 0.120826 0.0
4.34778 0.102965 0.0
4.32502 0.0567363 0.0
4.34778 0.0283679 0.0
4.37055 0.0745968 0.0
4.66647 0.120824 0.0
4.62094 0.102964 0.0
4.59818 0.0567349 0.0
4.62094 0.0283665 0.0
4.64371 0.0745954 0.0
1.47961 0.179177 0.0
1.52514 0.197037 0.0
1.5479 0.243267 0.0
1.52514 0.271635 0.0
1.50238 0.225406 0.0
4.93963 0.120823 0.0
4.8941 0.102962 0.0
4.87134 0.0567334 0.0
4.8941 0.028365 0.0
4.91686 0.0745939 0.0
1.20645 0.179176 0.0
1.25198 0.197037 0.0
1.27474 0.243266 0.0
1.25198 0.271634 0.0
1.22922 0.225405 0.0
5.21184 0.12949 0.0
5.16667 0.109955 0.0
5.14435 0.0602789 0.0
5.16718 0.030137 0.0
5.18951 0.0798134 0.0
0.933294 0.179175 0.0
0.97882 0.197036 0.0
1.00158 0.243265 0.0
0.97882 0.271633 0.0
0.956057 0.225404 0.0
0.660135 0.179175 0.0
0.705661 0.197035 0.0
0.728424 0.243265 0.0
0.705661 0.271633 0.0
0.682898 0.225404 0.0
0.389355 0.172859 0.0
0.433898 0.193331 0.0
0.45554 0.242535 0.0
0.432639 0.271268 0.0
0.410997 0.222063 0.0
0.523692 0.271268 0.0
0.501066 0.242535 0.0
0.52383 0.196306 0.0
0.569219 0.17881 0.0
0.546455 0.225039 0.0
0.796714 0.271633 0.0
0.773951 0.243265 0.0
0.796714 0.197036 0.0
0.842241 0.179175 0.0
0.819477 0.225404 0.0
2.98199 0.269807 0.0
2.95922 0.23961 0.0
2.98199 0.18961 0.0
3.02751 0.169807 0.0
3.00475 0.219807 0.0
1.06987 0.271634 0.0
1.04711 0.243265 0.0
1.06987 0.197036 0.0
1.1154 0.179176 0.0
1.09264 0.225405 0.0
1.34303 0.271634 0.0
1.32027 0.243266 0.0
1.34303 0.197037 0.0
1.38856 0.179176 0.0
1.3658 0.225405 0.0
5.07613 0.0301376 0.0
5.09882 0.0602792 0.0
5.07606 0.106508 0.0
5.03061 0.122596 0.0
5.05337 0.0763667 0.0
4.80305 0.0283655 0.0
4.82581 0.0567336 0.0
4.80305 0.102963 0.0
4.75752 0.120824 0.0
4.78028 0.0745946 0.0
1.61619 0.271635 0.0
1.59343 0.243267 0.0
1.61619 0.197038 0.0
1.66172 0.179177 0.0
1.63895 0.225406 0.0
4.52989 0.028367 0.0
4.55265 0.0567351 0.0
4.52989 0.102964 0.0
4.48436 0.120825 0.0
4.50713 0.0745961 0.0
4.25673 0.0283684 0.0
4.27949 0.0567365 0.0
4.25673 0.102966 0.0
4.2112 0.120827 0.0
4.23397 0.0745975 0.0
3.98357 0.0283696 0.0
4.00633 0.0567377 0.0
3.98357 0.102967 0.0
3.93804 0.120828 0.0
3.96081 0.0745987 0.0
1.88935 0.271635 0.0
1.86659 0.243267 0.0
1.88935 0.197038 0.0
1.93488 0.179178 0.0
1.91211 0.225407 0.0
3.71041 0.0283707 0.0
3.73317 0.0567388 0.0
3.71041 0.102968 0.0
3.66489 0.120829 0.0
3.68765 0.0745997 0.0
2.16251 0.271636 0.0
2.13975 0.243268 0.0
2.16251 0.197039 0.0
2.20804 0.179178 0.0
2.18527 0.225407 0.0
2.43567 0.271636 0.0
2.41291 0.243268 0.0
2.43567 0.197039 0.0
2.4812 0.179178 0.0
2.45843 0.225407 0.0
3.43725 0.0283715 0.0
3.46002 0.0567396 0.0
3.43725 0.102969 0.0
3.39173 0.12083 0.0
3.41449 0.0746005 0.0
2.70883 0.271636 0.0
2.68606 0.243268 0.0
2.70883 0.197039 0.0
2.75435 0.179178 0.0
2.73159 0.225407 0.0
3.16409 0.0302011 0.0
3.18686 0.0603983 0.0
3.16409 0.110398 0.0
3.11857 0.130201 0.0
3.14133 0.0802012 0.0
5.30171 0.168442 0.0