# vtk DataFile Version 2.0
FEM, Created by Wutzow
ASCII
DATASET UNSTRUCTURED_GRID
POINTS 1189 Float64
0 0 0
6.00762 -1.97893e-06 0
6.00762 0.299981 0
0 0.3 0
0.136537 5.34382e-08 0
0.273073 1.85975e-07 0
0.40961 3.86321e-07 0
0.546146 6.43914e-07 0
0.682683 9.48408e-07 0
0.819219 1.28967e-06 0
0.955756 1.65785e-06 0
1.09229 2.04334e-06 0
1.22883 2.43688e-06 0
1.36537 2.82952e-06 0
1.5019 3.21274e-06 0
1.63844 3.57842e-06 0
1.77497 3.91895e-06 0
1.91151 4.22719e-06 0
2.04805 4.49664e-06 0
2.18458 4.72133e-06 0
2.32112 4.89601e-06 0
2.45766 5.01606e-06 0
2.59419 5.07761e-06 0
2.73073 5.07752e-06 0
2.86727 5.01339e-06 0
3.0038 4.88361e-06 0
3.14034 4.68735e-06 0
3.27687 4.42449e-06 0
3.41341 4.0957e-06 0
3.54995 3.70238e-06 0
3.68648 3.24661e-06 0
3.82302 2.73111e-06 0
3.95956 2.15917e-06 0
4.09609 1.5346e-06 0
4.23263 8.61662e-07 0
4.36917 1.44994e-07 0
4.5057 -6.10518e-07 0
4.64224 -1.39978e-06 0
4.77878 -2.21764e-06 0
4.91531 -3.05896e-06 0
5.05185 -3.91877e-06 0
5.18838 -4.79231e-06 0
5.32492 -5.67511e-06 0
5.46146 -6.5631e-06 0
5.59799 -7.4575e-06 0
5.73453 -8.40111e-06 0
5.87107 -9.43124e-06 0
0.0455122 7.8818e-09 0
0.0910244 2.60946e-08 0
0.182049 8.94193e-08 0
0.227561 1.33734e-07 0
0.318585 2.45746e-07 0
0.364097 3.12658e-07 0
0.455122 4.66343e-07 0
0.500634 5.52335e-07 0
0.591658 7.40703e-07 0
0.63717 8.42326e-07 0
0.728195 1.05857e-06 0
0.773707 1.17245e-06 0
0.864731 1.40988e-06 0
0.910243 1.53273e-06 0
1.00127 1.78489e-06 0
1.04678 1.91351e-06 0
1.1378 2.17407e-06 0
1.18332 2.30536e-06 0
1.27434 2.5683e-06 0
1.31985 2.69929e-06 0
1.41088 2.95871e-06 0
1.45639 3.08655e-06 0
1.54741 3.33699e-06 0
1.59293 3.45898e-06 0
1.68395 3.69508e-06 0
1.72946 3.80867e-06 0
1.82049 4.02564e-06 0
1.866 4.12847e-06 0
1.95702 4.32161e-06 0
2.00254 4.4115e-06 0
2.09356 4.5768e-06 0
2.13907 4.65177e-06 0
2.2301 4.78534e-06 0
2.27561 4.84362e-06 0
2.36663 4.94233e-06 0
2.41214 4.98239e-06 0
2.50317 5.04323e-06 0
2.54868 5.06379e-06 0
2.6397 5.08459e-06 0
2.68522 5.08459e-06 0
2.77624 5.06334e-06 0
2.82175 5.04198e-06 0
2.91278 4.97751e-06 0
2.95829 4.93426e-06 0
3.04931 4.82558e-06 0
3.09483 4.76016e-06 0
3.18585 4.60715e-06 0
3.23136 4.51952e-06 0
3.32239 4.32214e-06 0
3.3679 4.21252e-06 0
3.45892 3.97171e-06 0
3.50444 3.84058e-06 0
3.59546 3.55725e-06 0
3.64097 3.4053e-06 0
3.732 3.0813e-06 0
3.77751 2.90942e-06 0
3.86853 2.54654e-06 0
3.91404 2.35584e-06 0
4.00507 1.95665e-06 0
4.05058 1.7484e-06 0
4.14161 1.31543e-06 0
4.18712 1.09106e-06 0
4.27814 6.27412e-07 0
4.32365 3.88459e-07 0
4.41468 -1.02783e-07 0
4.46019 -3.54684e-07 0
4.55121 -8.70102e-07 0
4.59673 -1.13326e-06 0
4.68775 -1.66948e-06 0
4.73326 -1.94216e-06 0
4.82429 -2.49573e-06 0
4.8698 -2.77624e-06 0
4.96082 -3.34374e-06 0
5.00634 -3.63041e-06 0
5.09736 -4.20866e-06 0
5.14287 -4.4999e-06 0
5.2339 -5.08575e-06 0
5.27941 -5.38007e-06 0
5.37043 -5.97071e-06 0
5.41595 -6.26673e-06 0
5.50697 -6.85989e-06 0
5.55248 -7.15773e-06 0
5.64351 -7.76218e-06 0
5.68902 -8.07552e-06 0
5.78004 -8.75348e-06 0
5.82555 -9.1191e-06 0
5.91658 -1.05938e-05 0
5.96209 -1.09783e-05 0
6.00761 0.0749899 0
6.00761 0.14999 0
6.00761 0.22499 0
6.0076 0.0249961 0
6.0076 0.0499922 0
6.0076 0.0999912 0
6.0076 0.124989 0
6.0076 0.174991 0
6.0076 0.199988 0
6.0076 0.249988 0
6.0076 0.274984 0
5.87107 0.299991 0
5.73453 0.299992 0
5.598 0.299993 0
5.46146 0.299993 0
5.32492 0.299994 0
5.18839 0.299995 0
5.05185 0.299996 0
4.91531 0.299997 0
4.77878 0.299998 0
4.64224 0.299999 0
4.5057 0.299999 0
4.36917 0.3 0
4.23263 0.300001 0
4.09609 0.300002 0
3.95956 0.300002 0
3.82302 0.300003 0
3.68648 0.300003 0
3.54995 0.300004 0
3.41341 0.300004 0
3.27688 0.300004 0
3.14034 0.300005 0
3.0038 0.300005 0
2.86727 0.300005 0
2.73073 0.300005 0
2.59419 0.300005 0
2.45766 0.300005 0
2.32112 0.300005 0
2.18458 0.300005 0
2.04805 0.300004 0
1.91151 0.300004 0
1.77497 0.300004 0
1.63844 0.300004 0
1.5019 0.300003 0
1.36536 0.300003 0
1.22883 0.300002 0
1.09229 0.300002 0
0.955755 0.300002 0
0.819218 0.300001 0
0.682682 0.300001 0
0.546146 0.300001 0
0.409609 0.3 0
0.273073 0.3 0
0.136536 0.3 0
5.9621 0.299992 0
5.91658 0.299991 0
5.82556 0.299991 0
5.78004 0.299991 0
5.68902 0.299992 0
5.64351 0.299992 0
5.55248 0.299993 0
5.50697 0.299993 0
5.41595 0.299994 0
5.37044 0.299994 0
5.27941 0.299995 0
5.2339 0.299995 0
5.14287 0.299996 0
5.09736 0.299996 0
5.00634 0.299996 0
4.96083 0.299997 0
4.8698 0.299997 0
4.82429 0.299998 0
4.73326 0.299998 0
4.68775 0.299998 0
4.59673 0.299999 0
4.55122 0.299999 0
4.46019 0.3 0
4.41468 0.3 0
4.32366 0.3 0
4.27814 0.300001 0
4.18712 0.300001 0
4.14161 0.300001 0
4.05058 0.300002 0
4.00507 0.300002 0
3.91405 0.300002 0
3.86853 0.300003 0
3.77751 0.300003 0
3.732 0.300003 0
3.64097 0.300003 0
3.59546 0.300004 0
3.50444 0.300004 0
3.45892 0.300004 0
3.3679 0.300004 0
3.32239 0.300004 0
3.23136 0.300005 0
3.18585 0.300005 0
3.09483 0.300005 0
3.04931 0.300005 0
2.95829 0.300005 0
2.91278 0.300005 0
2.82175 0.300005 0
2.77624 0.300005 0
2.68522 0.300005 0
2.6397 0.300005 0
2.54868 0.300005 0
2.50317 0.300005 0
2.41214 0.300005 0
2.36663 0.300005 0
2.27561 0.300005 0
2.2301 0.300005 0
2.13907 0.300005 0
2.09356 0.300005 0
2.00253 0.300004 0
1.95702 0.300004 0
1.866 0.300004 0
1.82049 0.300004 0
1.72946 0.300004 0
1.68395 0.300004 0
1.59292 0.300003 0
1.54741 0.300003 0
1.45639 0.300003 0
1.41088 0.300003 0
1.31985 0.300003 0
1.27434 0.300003 0
1.18332 0.300002 0
1.1378 0.300002 0
1.04678 0.300002 0
1.00127 0.300002 0
0.910243 0.300002 0
0.864731 0.300001 0
0.773706 0.300001 0
0.728194 0.300001 0
0.63717 0.300001 0
0.591658 0.300001 0
0.500633 0.300001 0
0.455121 0.3 0
0.364097 0.3 0
0.318585 0.3 0
0.227561 0.3 0
0.182048 0.3 0
0.0910242 0.3 0
0.0455121 0.3 0
0 0.225 0
0 0.15 0
0 0.075 0
0 0.275 0
0 0.25 0
0 0.2 0
0 0.175 0
0 0.125 0
0 0.1 0
0 0.05 0
0 0.025 0
5.85673 0.149991 0
0.150873 0.15 0
0.344704 0.152387 0
5.66844 0.150364 0
0.614414 0.161314 0
5.25535 0.149024 0
0.887487 0.161315 0
1.16056 0.161315 0
4.98358 0.138683 0
1.43363 0.161316 0
1.70671 0.161317 0
3.89129 0.138689 0
1.97978 0.161317 0
4.16436 0.138688 0
4.71051 0.138685 0
4.43743 0.138687 0
3.61822 0.13869 0
2.25285 0.161318 0
3.34514 0.138691 0
2.52592 0.161318 0
2.799 0.161318 0
3.07207 0.150005 0
5.50904 0.155402 0
2.93553 0.10702 0
5.11986 0.192786 0
0.47855 0.107493 0
1.02402 0.10928 0
0.750951 0.109279 0
4.84704 0.190719 0
1.2971 0.109281 0
4.3009 0.190722 0
4.02783 0.190724 0
1.57017 0.109282 0
4.57397 0.190721 0
1.84324 0.109282 0
2.11632 0.109283 0
3.75475 0.190725 0
2.38939 0.109283 0
3.48168 0.190726 0
2.66246 0.109283 0
3.20861 0.192989 0
5.38879 0.105032 0
5.94062 0.102924 0
5.94854 0.204646 0
0.0669791 0.197066 0
0.0590647 0.0953444 0
0.239691 0.102235 0
5.76637 0.102265 0
5.38942 0.207277 0
3.20861 0.0905963 0
2.66246 0.2149 0
3.48168 0.0851085 0
5.11989 0.090421 0
2.38939 0.2149 0
2.11632 0.2149 0
3.75475 0.0851076 0
1.84324 0.214899 0
1.57017 0.214899 0
0.75095 0.214896 0
1.02402 0.214897 0
1.2971 0.214898 0
4.02783 0.0851065 0
0.478289 0.213803 0
4.84704 0.085102 0
4.3009 0.0851051 0
4.57397 0.0851036 0
2.93553 0.209413 0
5.77362 0.202985 0
0.234276 0.203137 0
5.64496 0.20024 0
5.62148 0.250116 0
5.56834 0.251796 0
5.53869 0.203599 0
5.56217 0.153722 0
5.6153 0.152043 0
5.59182 0.201919 0
5.62148 0.0501164 0
5.64496 0.10024 0
5.53869 0.103599 0
5.56834 0.0517956 0
5.59182 0.101919 0
5.47732 0.251796 0
5.49318 0.203599 0
5.52283 0.251796 0
5.49318 0.103599 0
5.47732 0.0517962 0
5.52283 0.0517959 0
3.11758 0.0500047 0
3.09483 0.100005 0
3.04931 0.100005 0
3.02656 0.0500049 0
3.07207 0.0500048 0
2.75349 0.253776 0
2.77624 0.207547 0
2.82175 0.207547 0
2.84451 0.253776 0
2.799 0.253776 0
2.48041 0.253776 0
2.50317 0.207547 0
2.54868 0.207547 0
2.57144 0.253776 0
2.52592 0.253776 0
3.39066 0.0462331 0
3.3679 0.0924622 0
3.32239 0.0924623 0
3.29963 0.0462334 0
3.34514 0.0462332 0
2.20734 0.253776 0
2.2301 0.207547 0
2.27561 0.207547 0
2.29836 0.253776 0
2.25285 0.253776 0
3.66373 0.0462323 0
3.64097 0.0924614 0
3.59546 0.0924615 0
3.5727 0.0462326 0
3.61822 0.0462325 0
1.93427 0.253775 0
1.95702 0.207546 0
2.00253 0.207546 0
2.02529 0.253775 0
1.97978 0.253775 0
3.9368 0.0462312 0
3.91404 0.0924603 0
3.86853 0.0924605 0
3.84578 0.0462316 0
3.89129 0.0462314 0
1.66119 0.253775 0
1.68395 0.207546 0
1.72946 0.207546 0
1.75222 0.253775 0
1.70671 0.253775 0
4.20987 0.04623 0
4.18712 0.0924591 0
4.14161 0.0924593 0
4.11885 0.0462304 0
4.16436 0.0462302 0
1.38812 0.253774 0
1.41088 0.207545 0
1.45639 0.207545 0
1.47914 0.253774 0
1.43363 0.253774 0
4.48295 0.0462285 0
4.46019 0.0924576 0
4.41468 0.0924579 0
4.39192 0.046229 0
4.43743 0.0462288 0
4.75602 0.0462269 0
4.73326 0.092456 0
4.68775 0.0924563 0
4.665 0.0462274 0
4.71051 0.0462272 0
5.02909 0.0462252 0
5.00634 0.0924543 0
4.96082 0.0924546 0
4.93807 0.0462258 0
4.98358 0.0462255 0
1.11505 0.253773 0
1.1378 0.207544 0
1.18332 0.207544 0
1.20607 0.253773 0
1.16056 0.253773 0
5.30173 0.049671 0
5.27854 0.0993476 0
5.23303 0.0993479 0
5.2107 0.0496716 0
5.25622 0.0496713 0
0.841975 0.253772 0
0.864731 0.207543 0
0.910243 0.207544 0
0.932999 0.253773 0
0.887487 0.253772 0
0.387974 0.050796 0
0.366339 0.101592 0
0.320827 0.101591 0
0.29695 0.0507958 0
0.342462 0.0507959 0
5.7125 0.0501157 0
5.69047 0.10024 0
5.66699 0.050116 0
0.568902 0.253772 0
0.591658 0.207543 0
0.63717 0.207543 0
0.659926 0.253772 0
0.614414 0.253772 0
5.69047 0.20024 0
5.7125 0.250116 0
5.66699 0.250116 0
5.21071 0.249672 0
5.23303 0.199348 0
5.27854 0.199348 0
5.30173 0.249671 0
5.25622 0.249671 0
0.659926 0.0537719 0
0.63717 0.107543 0
0.591658 0.107543 0
0.568902 0.0537717 0
0.614414 0.0537718 0
0.932999 0.0537726 0
0.910243 0.107544 0
0.864731 0.107543 0
0.841975 0.0537724 0
0.887487 0.0537725 0
0.29695 0.250796 0
0.320827 0.201591 0
0.366339 0.201592 0
0.387974 0.250796 0
0.342462 0.250796 0
4.93807 0.246226 0
4.96083 0.192455 0
5.00634 0.192454 0
5.02909 0.246225 0
4.98358 0.246225 0
1.20607 0.0537734 0
1.18332 0.107544 0
1.1378 0.107544 0
1.11505 0.0537731 0
[...]
CELL_DATA 232
POINT_DATA 1189
VECTORS Y Float64
0 0 0.0
6.00762 -1.97893e-06 0.0
6.00762 0.299981 0.0
0 0.3 0.0
0.136537 5.34382e-08 0.0
0.273073 1.85975e-07 0.0
0.40961 3.86321e-07 0.0
0.546146 6.43914e-07 0.0
0.682683 9.48408e-07 0.0
0.819219 1.28967e-06 0.0
0.955756 1.65785e-06 0.0
1.09229 2.04334e-06 0.0
1.22883 2.43688e-06 0.0
1.36537 2.82952e-06 0.0
1.5019 3.21274e-06 0.0
1.63844 3.57842e-06 0.0
1.77497 3.91895e-06 0.0
1.91151 4.22719e-06 0.0
2.04805 4.49664e-06 0.0
2.18458 4.72133e-06 0.0
2.32112 4.89601e-06 0.0
2.45766 5.01606e-06 0.0
2.59419 5.07761e-06 0.0
2.73073 5.07752e-06 0.0
2.86727 5.01339e-06 0.0
3.0038 4.88361e-06 0.0
3.14034 4.68735e-06 0.0
3.27687 4.42449e-06 0.0
3.41341 4.0957e-06 0.0
3.54995 3.70238e-06 0.0
3.68648 3.24661e-06 0.0
3.82302 2.73111e-06 0.0
3.95956 2.15917e-06 0.0
4.09609 1.5346e-06 0.0
4.23263 8.61662e-07 0.0
4.36917 1.44994e-07 0.0
4.5057 -6.10518e-07 0.0
4.64224 -1.39978e-06 0.0
4.77878 -2.21764e-06 0.0
4.91531 -3.05896e-06 0.0
5.05185 -3.91877e-06 0.0
5.18838 -4.79231e-06 0.0
5.32492 -5.67511e-06 0.0
5.46146 -6.5631e-06 0.0
5.59799 -7.4575e-06 0.0
5.73453 -8.40111e-06 0.0
5.87107 -9.43124e-06 0.0
0.0455122 7.8818e-09 0.0
0.0910244 2.60946e-08 0.0
0.182049 8.94193e-08 0.0
0.227561 1.33734e-07 0.0
0.318585 2.45746e-07 0.0
0.364097 3.12658e-07 0.0
0.455122 4.66343e-07 0.0
0.500634 5.52335e-07 0.0
0.591658 7.40703e-07 0.0
0.63717 8.42326e-07 0.0
0.728195 1.05857e-06 0.0
0.773707 1.17245e-06 0.0
0.864731 1.40988e-06 0.0
0.910243 1.53273e-06 0.0
1.00127 1.78489e-06 0.0
1.04678 1.91351e-06 0.0
1.1378 2.17407e-06 0.0
1.18332 2.30536e-06 0.0
1.27434 2.5683e-06 0.0
1.31985 2.69929e-06 0.0
1.41088 2.95871e-06 0.0
1.45639 3.08655e-06 0.0
1.54741 3.33699e-06 0.0
1.59293 3.45898e-06 0.0
1.68395 3.69508e-06 0.0
1.72946 3.80867e-06 0.0
1.82049 4.02564e-06 0.0
1.866 4.12847e-06 0.0
1.95702 4.32161e-06 0.0
2.00254 4.4115e-06 0.0
2.09356 4.5768e-06 0.0
2.13907 4.65177e-06 0.0
2.2301 4.78534e-06 0.0
2.27561 4.84362e-06 0.0
2.36663 4.94233e-06 0.0
2.41214 4.98239e-06 0.0
2.50317 5.04323e-06 0.0
2.54868 5.06379e-06 0.0
2.6397 5.08459e-06 0.0
2.68522 5.08459e-06 0.0
2.77624 5.06334e-06 0.0
2.82175 5.04198e-06 0.0
2.91278 4.97751e-06 0.0
2.95829 4.93426e-06 0.0
3.04931 4.82558e-06 0.0
3.09483 4.76016e-06 0.0
3.18585 4.60715e-06 0.0
3.23136 4.51952e-06 0.0
3.32239 4.32214e-06 0.0
3.3679 4.21252e-06 0.0
3.45892 3.97171e-06 0.0
3.50444 3.84058e-06 0.0
3.59546 3.55725e-06 0.0
3.64097 3.4053e-06 0.0
3.732 3.0813e-06 0.0
3.77751 2.90942e-06 0.0
3.86853 2.54654e-06 0.0
3.91404 2.35584e-06 0.0
4.00507 1.95665e-06 0.0
4.05058 1.7484e-06 0.0
4.14161 1.31543e-06 0.0
4.18712 1.09106e-06 0.0
4.27814 6.27412e-07 0.0
4.32365 3.88459e-07 0.0
4.41468 -1.02783e-07 0.0
4.46019 -3.54684e-07 0.0
4.55121 -8.70102e-07 0.0
4.59673 -1.13326e-06 0.0
4.68775 -1.66948e-06 0.0
4.73326 -1.94216e-06 0.0
4.82429 -2.49573e-06 0.0
4.8698 -2.77624e-06 0.0
4.96082 -3.34374e-06 0.0
5.00634 -3.63041e-06 0.0
5.09736 -4.20866e-06 0.0
5.14287 -4.4999e-06 0.0
5.2339 -5.08575e-06 0.0
5.27941 -5.38007e-06 0.0
5.37043 -5.97071e-06 0.0
5.41595 -6.26673e-06 0.0
5.50697 -6.85989e-06 0.0
5.55248 -7.15773e-06 0.0
5.64351 -7.76218e-06 0.0
5.68902 -8.07552e-06 0.0
5.78004 -8.75348e-06 0.0
5.82555 -9.1191e-06 0.0
5.91658 -1.05938e-05 0.0
5.96209 -1.09783e-05 0.0
6.00761 0.0749899 0.0
6.00761 0.14999 0.0
6.00761 0.22499 0.0
6.0076 0.0249961 0.0
6.0076 0.0499922 0.0
6.0076 0.0999912 0.0
6.0076 0.124989 0.0
6.0076 0.174991 0.0
6.0076 0.199988 0.0
6.0076 0.249988 0.0
6.0076 0.274984 0.0
5.87107 0.299991 0.0
5.73453 0.299992 0.0
5.598 0.299993 0.0
5.46146 0.299993 0.0
5.32492 0.299994 0.0
5.18839 0.299995 0.0
5.05185 0.299996 0.0
4.91531 0.299997 0.0
4.77878 0.299998 0.0
4.64224 0.299999 0.0
4.5057 0.299999 0.0
4.36917 0.3 0.0
4.23263 0.300001 0.0
4.09609 0.300002 0.0
3.95956 0.300002 0.0
3.82302 0.300003 0.0
3.68648 0.300003 0.0
3.54995 0.300004 0.0
3.41341 0.300004 0.0
3.27688 0.300004 0.0
3.14034 0.300005 0.0
3.0038 0.300005 0.0
2.86727 0.300005 0.0
2.73073 0.300005 0.0
2.59419 0.300005 0.0
2.45766 0.300005 0.0
2.32112 0.300005 0.0
2.18458 0.300005 0.0
2.04805 0.300004 0.0
1.91151 0.300004 0.0
1.77497 0.300004 0.0
1.63844 0.300004 0.0
1.5019 0.300003 0.0
1.36536 0.300003 0.0
1.22883 0.300002 0.0
1.09229 0.300002 0.0
0.955755 0.300002 0.0
0.819218 0.300001 0.0
0.682682 0.300001 0.0
0.546146 0.300001 0.0
0.409609 0.3 0.0
0.273073 0.3 0.0
0.136536 0.3 0.0
5.9621 0.299992 0.0
5.91658 0.299991 0.0
5.82556 0.299991 0.0
5.78004 0.299991 0.0
5.68902 0.299992 0.0
5.64351 0.299992 0.0
5.55248 0.299993 0.0
5.50697 0.299993 0.0
5.41595 0.299994 0.0
5.37044 0.299994 0.0
5.27941 0.299995 0.0
5.2339 0.299995 0.0
5.14287 0.299996 0.0
5.09736 0.299996 0.0
5.00634 0.299996 0.0
4.96083 0.299997 0.0
4.8698 0.299997 0.0
4.82429 0.299998 0.0
4.73326 0.299998 0.0
4.68775 0.299998 0.0
4.59673 0.299999 0.0
4.55122 0.299999 0.0
4.46019 0.3 0.0
4.41468 0.3 0.0
4.32366 0.3 0.0
4.27814 0.300001 0.0
4.18712 0.300001 0.0
4.14161 0.300001 0.0
4.05058 0.300002 0.0
4.00507 0.300002 0.0
3.91405 0.300002 0.0
3.86853 0.300003 0.0
3.77751 0.300003 0.0
3.732 0.300003 0.0
3.64097 0.300003 0.0
3.59546 0.300004 0.0
3.50444 0.300004 0.0
3.45892 0.300004 0.0
3.3679 0.300004 0.0
3.32239 0.300004 0.0
3.23136 0.300005 0.0
3.18585 0.300005 0.0
3.09483 0.300005 0.0
3.04931 0.300005 0.0
2.95829 0.300005 0.0
2.91278 0.300005 0.0
2.82175 0.300005 0.0
2.77624 0.300005 0.0
2.68522 0.300005 0.0
2.6397 0.300005 0.0
2.54868 0.300005 0.0
2.50317 0.300005 0.0
2.41214 0.300005 0.0
2.36663 0.300005 0.0
2.27561 0.300005 0.0
2.2301 0.300005 0.0
2.13907 0.300005 0.0
2.09356 0.300005 0.0
2.00253 0.300004 0.0
1.95702 0.300004 0.0
1.866 0.300004 0.0
1.82049 0.300004 0.0
1.72946 0.300004 0.0
1.68395 0.300004 0.0
1.59292 0.300003 0.0
1.54741 0.300003 0.0
1.45639 0.300003 0.0
1.41088 0.300003 0.0
1.31985 0.300003 0.0
1.27434 0.300003 0.0
1.18332 0.300002 0.0
1.1378 0.300002 0.0
1.04678 0.300002 0.0
1.00127 0.300002 0.0
0.910243 0.300002 0.0
0.864731 0.300001 0.0
0.773706 0.300001 0.0
0.728194 0.300001 0.0
0.63717 0.300001 0.0
0.591658 0.300001 0.0
0.500633 0.300001 0.0
0.455121 0.3 0.0
0.364097 0.3 0.0
0.318585 0.3 0.0
0.227561 0.3 0.0
0.182048 0.3 0.0
0.0910242 0.3 0.0
0.0455121 0.3 0.0
0 0.225 0.0
0 0.15 0.0
0 0.075 0.0
0 0.275 0.0
0 0.25 0.0
0 0.2 0.0
0 0.175 0.0
0 0.125 0.0
0 0.1 0.0
0 0.05 0.0
0 0.025 0.0
5.85673 0.149991 0.0
0.150873 0.15 0.0
0.344704 0.152387 0.0
5.66844 0.150364 0.0
0.614414 0.161314 0.0
5.25535 0.149024 0.0
0.887487 0.161315 0.0
1.16056 0.161315 0.0
4.98358 0.138683 0.0
1.43363 0.161316 0.0
1.70671 0.161317 0.0
3.89129 0.138689 0.0
1.97978 0.161317 0.0
4.16436 0.138688 0.0
4.71051 0.138685 0.0
4.43743 0.138687 0.0
3.61822 0.13869 0.0
2.25285 0.161318 0.0
3.34514 0.138691 0.0
2.52592 0.161318 0.0
2.799 0.161318 0.0
3.07207 0.150005 0.0
5.50904 0.155402 0.0
2.93553 0.10702 0.0
5.11986 0.192786 0.0
0.47855 0.107493 0.0
1.02402 0.10928 0.0
0.750951 0.109279 0.0
4.84704 0.190719 0.0
1.2971 0.109281 0.0
4.3009 0.190722 0.0
4.02783 0.190724 0.0
1.57017 0.109282 0.0
4.57397 0.190721 0.0
1.84324 0.109282 0.0
2.11632 0.109283 0.0
3.75475 0.190725 0.0
2.38939 0.109283 0.0
3.48168 0.190726 0.0
2.66246 0.109283 0.0
3.20861 0.192989 0.0
5.38879 0.105032 0.0
5.94062 0.102924 0.0
5.94854 0.204646 0.0
0.0669791 0.197066 0.0
0.0590647 0.0953444 0.0
0.239691 0.102235 0.0
5.76637 0.102265 0.0
5.38942 0.207277 0.0
3.20861 0.0905963 0.0
2.66246 0.2149 0.0
3.48168 0.0851085 0.0
5.11989 0.090421 0.0
2.38939 0.2149 0.0
2.11632 0.2149 0.0
3.75475 0.0851076 0.0
1.84324 0.214899 0.0
1.57017 0.214899 0.0
0.75095 0.214896 0.0
1.02402 0.214897 0.0
1.2971 0.214898 0.0
4.02783 0.0851065 0.0
0.478289 0.213803 0.0
4.84704 0.085102 0.0
4.3009 0.0851051 0.0
4.57397 0.0851036 0.0
2.93553 0.209413 0.0
5.77362 0.202985 0.0
0.234276 0.203137 0.0
5.64496 0.20024 0.0
5.62148 0.250116 0.0
5.56834 0.251796 0.0
5.53869 0.203599 0.0
5.56217 0.153722 0.0
5.6153 0.152043 0.0
5.59182 0.201919 0.0
5.62148 0.0501164 0.0
5.64496 0.10024 0.0
5.53869 0.103599 0.0
5.56834 0.0517956 0.0
5.59182 0.101919 0.0
5.47732 0.251796 0.0
5.49318 0.203599 0.0
5.52283 0.251796 0.0
5.49318 0.103599 0.0
5.47732 0.0517962 0.0
5.52283 0.0517959 0.0
3.11758 0.0500047 0.0
3.09483 0.100005 0.0
3.04931 0.100005 0.0
3.02656 0.0500049 0.0
3.07207 0.0500048 0.0
2.75349 0.253776 0.0
2.77624 0.207547 0.0
2.82175 0.207547 0.0
2.84451 0.253776 0.0
2.799 0.253776 0.0
2.48041 0.253776 0.0
2.50317 0.207547 0.0
2.54868 0.207547 0.0
2.57144 0.253776 0.0
2.52592 0.253776 0.0
3.39066 0.0462331 0.0
3.3679 0.0924622 0.0
3.32239 0.0924623 0.0
3.29963 0.0462334 0.0
3.34514 0.0462332 0.0
2.20734 0.253776 0.0
2.2301 0.207547 0.0
2.27561 0.207547 0.0
2.29836 0.253776 0.0
2.25285 0.253776 0.0
3.66373 0.0462323 0.0
3.64097 0.0924614 0.0
3.59546 0.0924615 0.0
3.5727 0.0462326 0.0
3.61822 0.0462325 0.0
1.93427 0.253775 0.0
1.95702 0.207546 0.0
2.00253 0.207546 0.0
2.02529 0.253775 0.0
1.97978 0.253775 0.0
3.9368 0.0462312 0.0
3.91404 0.0924603 0.0
3.86853 0.0924605 0.0
3.84578 0.0462316 0.0
3.89129 0.0462314 0.0
1.66119 0.253775 0.0
1.68395 0.207546 0.0
1.72946 0.207546 0.0
1.75222 0.253775 0.0
1.70671 0.253775 0.0
4.20987 0.04623 0.0
4.18712 0.0924591 0.0
4.14161 0.0924593 0.0
4.11885 0.0462304 0.0
4.16436 0.0462302 0.0
1.38812 0.253774 0.0
1.41088 0.207545 0.0
1.45639 0.207545 0.0
1.47914 0.253774 0.0
1.43363 0.253774 0.0
4.48295 0.0462285 0.0
4.46019 0.0924576 0.0
4.41468 0.0924579 0.0
4.39192 0.046229 0.0
4.43743 0.0462288 0.0
4.75602 0.0462269 0.0
4.73326 0.092456 0.0
4.68775 0.0924563 0.0
4.665 0.0462274 0.0
4.71051 0.0462272 0.0
5.02909 0.0462252 0.0
5.00634 0.0924543 0.0
4.96082 0.0924546 0.0
4.93807 0.0462258 0.0
4.98358 0.0462255 0.0
1.11505 0.253773 0.0
1.1378 0.207544 0.0
1.18332 0.207544 0.0
1.20607 0.253773 0.0
1.16056 0.253773 0.0
5.30173 0.049671 0.0
5.27854 0.0993476 0.0
5.23303 0.0993479 0.0
5.2107 0.0496716 0.0
5.25622 0.0496713 0.0
0.841975 0.253772 0.0
0.864731 0.207543 0.0
0.910243 0.207544 0.0
0.932999 0.253773 0.0
0.887487 0.253772 0.0
0.387974 0.050796 0.0
0.366339 0.101592 0.0
0.320827 0.101591 0.0
0.29695 0.0507958 0.0
0.342462 0.0507959 0.0
5.7125 0.0501157 0.0
5.69047 0.10024 0.0
5.66699 0.050116 0.0
0.568902 0.253772 0.0
0.591658 0.207543 0.0
0.63717 0.207543 0.0
0.659926 0.253772 0.0
0.614414 0.253772 0.0
5.69047 0.20024 0.0
5.7125 0.250116 0.0
5.66699 0.250116 0.0
5.21071 0.249672 0.0
5.23303 0.199348 0.0
5.27854 0.199348 0.0
5.30173 0.249671 0.0
5.25622 0.249671 0.0
0.659926 0.0537719 0.0
0.63717 0.107543 0.0
0.591658 0.107543 0.0
0.568902 0.0537717 0.0
0.614414 0.0537718 0.0
0.932999 0.0537726 0.0
0.910243 0.107544 0.0
0.864731 0.107543 0.0
0.841975 0.0537724 0.0
0.887487 0.0537725 0.0
0.29695 0.250796 0.0
0.320827 0.201591 0.0
0.366339 0.201592 0.0
0.387974 0.250796 0.0
0.342462 0.250796 0.0
4.93807 0.246226 0.0
4.96083 0.192455 0.0
5.00634 0.192454 0.0
5.02909 0.246225 0.0
4.98358 0.246225 0.0
1.20607 0.0537734 0.0
1.18332 0.107544 0.0
1.1378 0.107544 0.0
1.11505 0.0537731 0.0
1.16056 0.0537733 0.0
1.47915 0.0537742 0.0
1.45639 0.107545 0.0
1.41088 0.107545 0.0
1.38812 0.0537739 0.0
1.43363 0.053774 0.0
1.75222 0.0537749 0.0
1.72946 0.107546 0.0
1.68395 0.107546 0.0
1.66119 0.0537747 0.0
1.70671 0.0537748 0.0
3.84578 0.246232 0.0
3.86853 0.192461 0.0
3.91405 0.19246 0.0
3.9368 0.246231 0.0
3.89129 0.246231 0.0
2.02529 0.0537755 0.0
2.00253 0.107546 0.0
1.95702 0.107546 0.0
1.93427 0.0537753 0.0
1.97978 0.0537754 0.0
4.11885 0.24623 0.0
4.14161 0.192459 0.0
4.18712 0.192459 0.0
4.20987 0.24623 0.0
4.16436 0.24623 0.0
3.5727 0.246233 0.0
3.59546 0.192462 0.0
3.64097 0.192461 0.0
3.66373 0.246232 0.0
3.61822 0.246232 0.0
4.665 0.246227 0.0
4.68775 0.192456 0.0
4.73326 0.192456 0.0
4.75602 0.246227 0.0
4.71051 0.246227 0.0
4.39192 0.246229 0.0
4.41468 0.192458 0.0
4.46019 0.192458 0.0
4.48295 0.246228 0.0
4.43744 0.246229 0.0
2.29836 0.0537759 0.0
2.27561 0.107547 0.0
2.2301 0.107547 0.0
2.20734 0.0537758 0.0
2.25285 0.0537758 0.0
3.29963 0.246233 0.0
3.32239 0.192462 0.0
3.3679 0.192462 0.0
3.39066 0.246233 0.0
3.34514 0.246233 0.0
2.57144 0.0537761 0.0
2.54868 0.107547 0.0
2.50317 0.107547 0.0
2.48041 0.0537761 0.0
2.52592 0.0537761 0.0
2.84451 0.053776 0.0
2.82175 0.107547 0.0
2.77624 0.107547 0.0
2.75349 0.0537761 0.0
2.799 0.0537761 0.0
3.02656 0.250005 0.0
3.04931 0.200005 0.0
3.09483 0.200005 0.0
3.11758 0.250005 0.0
3.07207 0.250005 0.0
3.02656 0.135677 0.0
2.98105 0.121349 0.0
2.95829 0.0713486 0.0
2.98105 0.0356768 0.0
3.0038 0.0856767 0.0
2.89002 0.0356768 0.0
2.91278 0.0713487 0.0
2.89002 0.12512 0.0
2.84451 0.143219 0.0
2.86727 0.0894479 0.0
0.43259 0.0358314 0.0
0.45557 0.0716624 0.0
0.433935 0.122458 0.0
0.389319 0.137423 0.0
0.410954 0.086627 0.0
5.16554 0.264259 0.0
5.1427 0.228522 0.0
5.16502 0.178199 0.0
5.21018 0.163612 0.0
5.18786 0.213935 0.0
0.569126 0.143374 0.0
0.523838 0.125434 0.0
0.501082 0.0716625 0.0
0.523614 0.0358316 0.0
0.54637 0.0896026 0.0
0.705439 0.0364271 0.0
0.728195 0.0728532 0.0
0.705438 0.126624 0.0
0.659926 0.143969 0.0
0.682682 0.090198 0.0
0.841975 0.143969 0.0
0.796463 0.126624 0.0
0.773707 0.0728533 0.0
0.796463 0.0364273 0.0
0.819219 0.0901984 0.0
0.978512 0.0364278 0.0
1.00127 0.0728539 0.0
0.978511 0.126625 0.0
0.932999 0.14397 0.0
0.955755 0.0901987 0.0
5.02901 0.156718 0.0
5.07443 0.174752 0.0
5.09719 0.228523 0.0
5.07452 0.264259 0.0
5.05176 0.210489 0.0
1.11505 0.14397 0.0
1.06954 0.126625 0.0
1.04678 0.072854 0.0
1.06954 0.036428 0.0
1.09229 0.0901991 0.0
1.25158 0.0364286 0.0
1.27434 0.0728547 0.0
1.25158 0.126626 0.0
1.20607 0.14397 0.0
1.22883 0.0901995 0.0
1.38812 0.143971 0.0
1.34261 0.126626 0.0
1.31985 0.0728548 0.0
1.34261 0.0364288 0.0
1.36536 0.0901999 0.0
1.52466 0.0364293 0.0
1.54741 0.0728554 0.0
1.52466 0.126626 0.0
1.47915 0.143971 0.0
1.5019 0.0902003 0.0
4.89256 0.263571 0.0
4.8698 0.227145 0.0
4.89256 0.173374 0.0
4.93807 0.156029 0.0
4.91531 0.2098 0.0
1.66119 0.143972 0.0
1.61568 0.126627 0.0
1.59293 0.0728556 0.0
1.61568 0.0364296 0.0
1.63844 0.0902006 0.0
1.79773 0.03643 0.0
1.82049 0.0728561 0.0
1.79773 0.126627 0.0
1.75222 0.143972 0.0
1.77497 0.090201 0.0
3.9368 0.156034 0.0
3.98231 0.173379 0.0
4.00507 0.22715 0.0
3.98231 0.263576 0.0
3.95956 0.209805 0.0
4.07334 0.263576 0.0
4.05058 0.22715 0.0
4.07334 0.173379 0.0
4.11885 0.156033 0.0
4.09609 0.209804 0.0
3.80027 0.263577 0.0
3.77751 0.227151 0.0
3.80026 0.17338 0.0
3.84578 0.156035 0.0
3.82302 0.209806 0.0
4.20987 0.156033 0.0
4.25539 0.173378 0.0
4.27814 0.227149 0.0
4.25539 0.263575 0.0
4.23263 0.209804 0.0
4.75602 0.15603 0.0
4.80153 0.173375 0.0
4.82429 0.227145 0.0
4.80153 0.263572 0.0
4.77878 0.209801 0.0
4.34641 0.263574 0.0
4.32366 0.227148 0.0
4.34641 0.173377 0.0
4.39192 0.156032 0.0
4.36917 0.209803 0.0
4.61948 0.263573 0.0
4.59673 0.227147 0.0
4.61948 0.173376 0.0
4.665 0.15603 0.0
4.64224 0.209802 0.0
1.93427 0.143972 0.0
1.88875 0.126627 0.0
1.866 0.0728562 0.0
1.88875 0.0364302 0.0
1.91151 0.0902013 0.0
2.0708 0.0364306 0.0
2.09356 0.0728567 0.0
2.0708 0.126628 0.0
2.02529 0.143973 0.0
2.04805 0.0902016 0.0
4.48295 0.156031 0.0
4.52846 0.173376 0.0
4.55122 0.227147 0.0
4.52846 0.263573 0.0
4.5057 0.209802 0.0
3.66373 0.156035 0.0
3.70924 0.17338 0.0
3.732 0.227151 0.0
3.70924 0.263577 0.0
3.68648 0.209806 0.0
3.52719 0.263578 0.0
3.50444 0.227152 0.0
3.52719 0.173381 0.0
3.5727 0.156036 0.0
3.54995 0.209807 0.0
2.20734 0.143973 0.0
2.16183 0.126628 0.0
2.13907 0.0728568 0.0
2.16183 0.0364307 0.0
2.18458 0.0902018 0.0
2.34388 0.036431 0.0
2.36663 0.072857 0.0
2.34388 0.126628 0.0
2.29836 0.143973 0.0
2.32112 0.090202 0.0
2.48041 0.143973 0.0
2.4349 0.126628 0.0
2.41214 0.0728571 0.0
2.4349 0.0364311 0.0
2.45766 0.0902021 0.0
2.61695 0.0364311 0.0
2.6397 0.0728572 0.0
2.61695 0.126628 0.0
2.57144 0.143973 0.0
2.59419 0.0902021 0.0
3.39066 0.156036 0.0
3.43617 0.173381 0.0
3.45892 0.227152 0.0
3.43617 0.263578 0.0
3.41341 0.209807 0.0
3.25412 0.264333 0.0
3.23136 0.228661 0.0
3.25412 0.17489 0.0
3.29963 0.15679 0.0
3.27688 0.210562 0.0
2.75349 0.143973 0.0
2.70797 0.126628 0.0
2.68522 0.0728572 0.0
2.70797 0.0364311 0.0
2.73073 0.0902021 0.0
3.11758 0.164333 0.0
3.16309 0.178661 0.0
3.18585 0.228661 0.0
3.16309 0.264333 0.0
3.14034 0.214333 0.0
2.84451 0.17735 0.0
2.89002 0.193382 0.0
2.91278 0.23961 0.0
2.89002 0.269808 0.0
2.86727 0.223579 0.0
3.29963 0.12266 0.0
3.25412 0.106628 0.0
3.23136 0.060399 0.0
3.25412 0.0302017 0.0
3.27687 0.0764306 0.0
2.57144 0.179179 0.0
2.61695 0.19704 0.0
2.6397 0.243269 0.0
2.61695 0.271637 0.0
2.59419 0.225408 0.0
2.29836 0.179179 0.0
2.34388 0.19704 0.0
2.36663 0.243269 0.0
2.34388 0.271637 0.0
2.32112 0.225408 0.0
3.5727 0.12083 0.0
3.52719 0.102969 0.0
3.50444 0.0567403 0.0
3.52719 0.028372 0.0
3.54995 0.0746009 0.0
2.02529 0.179178 0.0
2.0708 0.197039 0.0
2.09356 0.243268 0.0
2.0708 0.271636 0.0
2.04805 0.225407 0.0
3.84578 0.120829 0.0
3.80026 0.102968 0.0
3.77751 0.0567393 0.0
3.80026 0.028371 0.0
3.82302 0.0745999 0.0
1.75222 0.179178 0.0
1.79773 0.197039 0.0
1.82049 0.243268 0.0
1.79773 0.271636 0.0
1.77497 0.225407 0.0
4.11885 0.120828 0.0
4.07334 0.102967 0.0
4.05058 0.0567382 0.0
4.07334 0.0283699 0.0
4.09609 0.0745987 0.0
4.39192 0.120826 0.0
4.34641 0.102966 0.0
4.32365 0.0567368 0.0
4.34641 0.0283685 0.0
4.36917 0.0745973 0.0
4.665 0.120825 0.0
4.61948 0.102964 0.0
4.59673 0.0567353 0.0
4.61948 0.0283669 0.0
4.64224 0.0745958 0.0
1.47914 0.179177 0.0
1.52466 0.197038 0.0
1.54741 0.243267 0.0
1.52466 0.271635 0.0
1.5019 0.225406 0.0
4.93807 0.120823 0.0
4.89256 0.102962 0.0
4.8698 0.0567337 0.0
4.89256 0.0283653 0.0
4.91531 0.0745941 0.0
1.20607 0.179176 0.0
1.25158 0.197037 0.0
1.27434 0.243266 0.0
1.25158 0.271634 0.0
1.22883 0.225405 0.0
5.21019 0.12949 0.0
5.16504 0.109955 0.0
5.14272 0.0602791 0.0
5.16555 0.0301371 0.0
5.18787 0.0798135 0.0
0.932999 0.179175 0.0
0.978511 0.197036 0.0
1.00127 0.243265 0.0
0.978511 0.271634 0.0
0.955755 0.225404 0.0
0.659926 0.179175 0.0
0.705438 0.197036 0.0
0.728194 0.243265 0.0
0.705438 0.271633 0.0
0.682682 0.225404 0.0
0.389232 0.172859 0.0
0.433761 0.193331 0.0
0.455396 0.242535 0.0
0.432502 0.271268 0.0
0.410867 0.222063 0.0
0.523527 0.271268 0.0
0.500908 0.242535 0.0
0.523664 0.196307 0.0
0.569039 0.17881 0.0
0.546283 0.225039 0.0
0.796462 0.271633 0.0
0.773706 0.243265 0.0
0.796463 0.197036 0.0
0.841975 0.179175 0.0
0.819219 0.225404 0.0
2.98105 0.269808 0.0
2.95829 0.23961 0.0
2.98105 0.18961 0.0
3.02656 0.169808 0.0
3.0038 0.219808 0.0
1.06954 0.271634 0.0
1.04678 0.243265 0.0
1.06954 0.197037 0.0
1.11505 0.179176 0.0
1.09229 0.225405 0.0
1.34261 0.271635 0.0
1.31985 0.243266 0.0
1.34261 0.197037 0.0
1.38812 0.179177 0.0
1.36536 0.225406 0.0
5.07453 0.0301377 0.0
5.09721 0.0602794 0.0
5.07446 0.106508 0.0
5.02902 0.122596 0.0
5.05177 0.0763668 0.0
4.80153 0.0283659 0.0
4.82429 0.0567339 0.0
4.80153 0.102963 0.0
4.75602 0.120824 0.0
4.77878 0.074595 0.0
1.61568 0.271635 0.0
1.59293 0.243267 0.0
1.61568 0.197038 0.0
1.66119 0.179177 0.0
1.63844 0.225406 0.0
4.52846 0.0283675 0.0
4.55121 0.0567356 0.0
4.52846 0.102965 0.0
4.48295 0.120826 0.0
4.5057 0.0745966 0.0
4.25539 0.028369 0.0
4.27814 0.0567371 0.0
4.25539 0.102966 0.0
4.20987 0.120827 0.0
4.23263 0.0745981 0.0
3.98231 0.0283703 0.0
4.00507 0.0567384 0.0
3.98231 0.102967 0.0
3.9368 0.120828 0.0
3.95956 0.0745994 0.0
1.88875 0.271636 0.0
1.866 0.243268 0.0
1.88875 0.197039 0.0
1.93427 0.179178 0.0
1.91151 0.225407 0.0
3.70924 0.0283714 0.0
3.732 0.0567395 0.0
3.70924 0.102969 0.0
3.66373 0.12083 0.0
3.68648 0.0746004 0.0
2.16183 0.271636 0.0
2.13907 0.243268 0.0
2.16183 0.197039 0.0
2.20734 0.179179 0.0
2.18458 0.225408 0.0
2.4349 0.271637 0.0
2.41214 0.243269 0.0
2.4349 0.19704 0.0
2.48041 0.179179 0.0
2.45766 0.225408 0.0
3.43617 0.0283722 0.0
3.45892 0.0567404 0.0
3.43617 0.102969 0.0
3.39066 0.12083 0.0
3.41341 0.0746013 0.0
2.70797 0.271637 0.0
2.68522 0.243269 0.0
2.70797 0.19704 0.0
2.75349 0.179179 0.0
2.73073 0.225408 0.0
3.16309 0.0302019 0.0
3.18585 0.0603991 0.0
3.16309 0.110399 0.0
3.11758 0.130202 0.0
3.14034 0.0802019 0.0
5.30004 0.168442 0.0