# vtk DataFile Version 2.0
FEM, Created by Wutzow
ASCII
DATASET UNSTRUCTURED_GRID
POINTS 1189 Float64
0 0 0
6.00381 -2.09123e-06 0
6.00381 0.29999 0
0 0.3 0
0.13645 3.17914e-08 0
0.2729 1.11483e-07 0
0.409351 2.32599e-07 0
0.545801 3.89027e-07 0
0.682251 5.74714e-07 0
0.818701 7.83699e-07 0
0.955151 1.01013e-06 0
1.0916 1.24826e-06 0
1.22805 1.49252e-06 0
1.3645 1.7375e-06 0
1.50095 1.97799e-06 0
1.6374 2.20901e-06 0
1.77385 2.42585e-06 0
1.9103 2.62407e-06 0
2.04675 2.79958e-06 0
2.1832 2.94862e-06 0
2.31965 3.06781e-06 0
2.4561 3.15416e-06 0
2.59255 3.20512e-06 0
2.729 3.21856e-06 0
2.86545 3.19282e-06 0
3.0019 3.12669e-06 0
3.13835 3.01942e-06 0
3.2748 2.87073e-06 0
3.41125 2.68081e-06 0
3.5477 2.4503e-06 0
3.68415 2.18024e-06 0
3.8206 1.87209e-06 0
3.95705 1.52767e-06 0
4.0935 1.14914e-06 0
4.22995 7.3892e-07 0
4.3664 2.99704e-07 0
4.50285 -1.6565e-07 0
4.6393 -6.54116e-07 0
4.77575 -1.16262e-06 0
4.9122 -1.68804e-06 0
5.04865 -2.22733e-06 0
5.1851 -2.77752e-06 0
5.32155 -3.33578e-06 0
5.458 -3.89947e-06 0
5.59445 -4.4686e-06 0
5.7309 -5.0641e-06 0
5.86736 -5.70432e-06 0
0.0454834 4.62573e-09 0
0.0909668 1.5449e-08 0
0.181934 5.33706e-08 0
0.227417 8.00122e-08 0
0.318384 1.47555e-07 0
0.363867 1.88002e-07 0
0.454834 2.81121e-07 0
0.500317 3.33337e-07 0
0.591284 4.47966e-07 0
0.636767 5.09935e-07 0
0.727734 6.42082e-07 0
0.773218 7.11815e-07 0
0.864184 8.57521e-07 0
0.909668 9.33067e-07 0
1.00063 1.08849e-06 0
1.04612 1.16793e-06 0
1.13708 1.32927e-06 0
1.18257 1.41076e-06 0
1.27353 1.57437e-06 0
1.31902 1.6561e-06 0
1.40998 1.81841e-06 0
1.45547 1.89863e-06 0
1.54644 2.0563e-06 0
1.59192 2.13336e-06 0
1.68289 2.28308e-06 0
1.72837 2.35542e-06 0
1.81934 2.49421e-06 0
1.86482 2.56033e-06 0
1.95579 2.68528e-06 0
2.00127 2.74383e-06 0
2.09224 2.85239e-06 0
2.13772 2.90211e-06 0
2.22869 2.99181e-06 0
2.27417 3.03158e-06 0
2.36514 3.10039e-06 0
2.41062 3.1292e-06 0
2.50159 3.17519e-06 0
2.54707 3.1922e-06 0
2.63804 3.21388e-06 0
2.68352 3.21838e-06 0
2.77449 3.2144e-06 0
2.81997 3.20583e-06 0
2.91094 3.17533e-06 0
2.95642 3.15329e-06 0
3.04739 3.09551e-06 0
3.09287 3.05976e-06 0
3.18384 2.97448e-06 0
3.22932 2.92491e-06 0
3.32029 2.81197e-06 0
3.36577 2.74866e-06 0
3.45674 2.60846e-06 0
3.50222 2.53161e-06 0
3.59319 2.36459e-06 0
3.63867 2.27455e-06 0
3.72964 2.08169e-06 0
3.77512 1.97895e-06 0
3.86609 1.76121e-06 0
3.91157 1.64637e-06 0
4.00254 1.40519e-06 0
4.04802 1.27898e-06 0
4.13899 1.01579e-06 0
4.18447 8.79012e-07 0
4.27544 5.95608e-07 0
4.32092 4.49165e-07 0
4.41189 1.4734e-07 0
4.45737 -7.81595e-09 0
4.54834 -3.26051e-07 0
4.59382 -4.88914e-07 0
4.68479 -8.21544e-07 0
4.73027 -9.91085e-07 0
4.82124 -1.33604e-06 0
4.86672 -1.51122e-06 0
4.95769 -1.86641e-06 0
5.00317 -2.04621e-06 0
5.09414 -2.40966e-06 0
5.13962 -2.5931e-06 0
5.23059 -2.96284e-06 0
5.27607 -3.14896e-06 0
5.36704 -3.52319e-06 0
5.41252 -3.71111e-06 0
5.50349 -4.08829e-06 0
5.54897 -4.27786e-06 0
5.63994 -4.662e-06 0
5.68542 -4.8599e-06 0
5.77639 -5.28188e-06 0
5.82187 -5.50645e-06 0
5.91284 -6.32856e-06 0
5.95832 -6.56274e-06 0
6.00381 0.0749938 0
6.00381 0.149994 0
6.00381 0.224994 0
6.0038 0.0249969 0
6.0038 0.049995 0
6.0038 0.0999945 0
6.0038 0.124993 0
6.0038 0.174994 0
6.0038 0.199993 0
6.0038 0.249993 0
6.00381 0.274991 0
5.86736 0.299994 0
5.73091 0.299995 0
5.59446 0.299996 0
5.45801 0.299996 0
5.32156 0.299997 0
5.18511 0.299997 0
5.04866 0.299998 0
4.91221 0.299998 0
4.77576 0.299999 0
4.6393 0.299999 0
4.50285 0.3 0
4.3664 0.3 0
4.22995 0.300001 0
4.0935 0.300001 0
3.95705 0.300002 0
3.8206 0.300002 0
3.68415 0.300002 0
3.5477 0.300002 0
3.41125 0.300003 0
3.2748 0.300003 0
3.13835 0.300003 0
3.0019 0.300003 0
2.86545 0.300003 0
2.729 0.300003 0
2.59255 0.300003 0
2.4561 0.300003 0
2.31965 0.300003 0
2.1832 0.300003 0
2.04675 0.300003 0
1.9103 0.300003 0
1.77385 0.300002 0
1.6374 0.300002 0
1.50095 0.300002 0
1.3645 0.300002 0
1.22805 0.300001 0
1.0916 0.300001 0
0.955151 0.300001 0
0.818701 0.300001 0
0.68225 0.300001 0
0.5458 0.3 0
0.40935 0.3 0
0.2729 0.3 0
0.13645 0.3 0
5.95832 0.299995 0
5.91284 0.299995 0
5.82187 0.299995 0
5.77639 0.299995 0
5.68542 0.299995 0
5.63994 0.299995 0
5.54897 0.299996 0
5.50349 0.299996 0
5.41252 0.299996 0
5.36704 0.299996 0
5.27607 0.299997 0
5.23059 0.299997 0
5.13962 0.299997 0
5.09414 0.299998 0
5.00317 0.299998 0
4.95769 0.299998 0
4.86672 0.299998 0
4.82124 0.299999 0
4.73027 0.299999 0
4.68479 0.299999 0
4.59382 0.3 0
4.54834 0.3 0
4.45737 0.3 0
4.41189 0.3 0
4.32092 0.3 0
4.27544 0.300001 0
4.18447 0.300001 0
4.13899 0.300001 0
4.04802 0.300001 0
4.00254 0.300001 0
3.91157 0.300002 0
3.86609 0.300002 0
3.77512 0.300002 0
3.72964 0.300002 0
3.63867 0.300002 0
3.59319 0.300002 0
3.50222 0.300003 0
3.45674 0.300003 0
3.36577 0.300003 0
3.32029 0.300003 0
3.22932 0.300003 0
3.18384 0.300003 0
3.09287 0.300003 0
3.04739 0.300003 0
2.95642 0.300003 0
2.91094 0.300003 0
2.81997 0.300003 0
2.77449 0.300003 0
2.68352 0.300003 0
2.63804 0.300003 0
2.54707 0.300003 0
2.50159 0.300003 0
2.41062 0.300003 0
2.36514 0.300003 0
2.27417 0.300003 0
2.22869 0.300003 0
2.13772 0.300003 0
2.09224 0.300003 0
2.00127 0.300003 0
1.95578 0.300003 0
1.86482 0.300003 0
1.81933 0.300002 0
1.72837 0.300002 0
1.68288 0.300002 0
1.59192 0.300002 0
1.54643 0.300002 0
1.45547 0.300002 0
1.40998 0.300002 0
1.31902 0.300002 0
1.27353 0.300002 0
1.18257 0.300001 0
1.13708 0.300001 0
1.04612 0.300001 0
1.00063 0.300001 0
0.909667 0.300001 0
0.864184 0.300001 0
0.773217 0.300001 0
0.727734 0.300001 0
0.636767 0.300001 0
0.591284 0.3 0
0.500317 0.3 0
0.454834 0.3 0
0.363867 0.3 0
0.318384 0.3 0
0.227417 0.3 0
0.181933 0.3 0
0.0909667 0.3 0
0.0454834 0.3 0
0 0.225 0
0 0.15 0
0 0.075 0
0 0.275 0
0 0.25 0
0 0.2 0
0 0.175 0
0 0.125 0
0 0.1 0
0 0.05 0
0 0.025 0
5.85303 0.149994 0
0.150777 0.15 0
0.344486 0.152387 0
5.66485 0.150367 0
0.614026 0.161314 0
5.25202 0.149026 0
0.886926 0.161314 0
1.15983 0.161314 0
4.98043 0.138685 0
1.43273 0.161315 0
1.70563 0.161315 0
3.88883 0.138689 0
1.97853 0.161316 0
4.16173 0.138688 0
4.70753 0.138686 0
4.43463 0.138687 0
3.61593 0.138689 0
2.25143 0.161316 0
3.34303 0.13869 0
2.52433 0.161316 0
2.79723 0.161316 0
3.07013 0.150003 0
5.50555 0.155405 0
2.93368 0.107019 0
5.11662 0.192788 0
0.478248 0.107493 0
1.02338 0.109279 0
0.750476 0.109279 0
4.84398 0.19072 0
1.29628 0.10928 0
4.29818 0.190722 0
4.02528 0.190723 0
1.56918 0.10928 0
4.57108 0.190721 0
1.84208 0.109281 0
2.11498 0.109281 0
3.75238 0.190724 0
2.38788 0.109281 0
3.47948 0.190724 0
2.66078 0.109281 0
3.20658 0.192987 0
5.38538 0.105035 0
5.93687 0.102928 0
5.94478 0.20465 0
0.0669367 0.197066 0
0.0590274 0.0953444 0
0.239539 0.102235 0
5.76272 0.102269 0
5.38601 0.20728 0
3.20658 0.0905947 0
2.66078 0.214899 0
3.47948 0.0851072 0
5.11666 0.0904229 0
2.38788 0.214898 0
2.11498 0.214898 0
3.75238 0.0851067 0
1.84208 0.214898 0
1.56918 0.214897 0
0.750476 0.214896 0
1.02338 0.214896 0
1.29628 0.214897 0
4.02528 0.085106 0
0.477987 0.213803 0
4.84398 0.0851032 0
4.29818 0.0851052 0
4.57108 0.0851042 0
2.93368 0.209411 0
5.76997 0.202988 0
0.234128 0.203137 0
5.64139 0.200243 0
5.61792 0.250119 0
5.56482 0.251799 0
5.53519 0.203602 0
5.55865 0.153725 0
5.61175 0.152046 0
5.58829 0.201922 0
5.61792 0.0501194 0
5.64139 0.100243 0
5.53519 0.103602 0
5.56482 0.0517985 0
5.58829 0.101922 0
5.47386 0.251799 0
5.4897 0.203602 0
5.51934 0.251799 0
5.4897 0.103602 0
5.47385 0.0517989 0
5.51934 0.0517987 0
3.11561 0.050003 0
3.09287 0.100003 0
3.04739 0.100003 0
3.02464 0.0500031 0
3.07013 0.0500031 0
2.75174 0.253774 0
2.77449 0.207545 0
2.81997 0.207545 0
2.84271 0.253774 0
2.79723 0.253774 0
2.47884 0.253774 0
2.50159 0.207545 0
2.54707 0.207545 0
2.56981 0.253774 0
2.52433 0.253774 0
3.38851 0.0462317 0
3.36577 0.0924607 0
3.32029 0.0924608 0
3.29754 0.0462318 0
3.34303 0.0462318 0
2.20594 0.253774 0
2.22869 0.207545 0
2.27417 0.207545 0
2.29691 0.253774 0
2.25143 0.253774 0
3.66141 0.0462312 0
3.63867 0.0924602 0
3.59319 0.0924603 0
3.57044 0.0462314 0
3.61593 0.0462313 0
1.93304 0.253774 0
1.95579 0.207545 0
2.00127 0.207545 0
2.02401 0.253774 0
1.97853 0.253774 0
3.93431 0.0462306 0
3.91157 0.0924596 0
3.86609 0.0924597 0
3.84335 0.0462308 0
3.88883 0.0462307 0
1.66014 0.253773 0
1.68288 0.207544 0
1.72837 0.207544 0
1.75111 0.253773 0
1.70563 0.253773 0
4.20721 0.0462298 0
4.18447 0.0924588 0
4.13899 0.092459 0
4.11625 0.0462301 0
4.16173 0.0462299 0
1.38724 0.253773 0
1.40998 0.207544 0
1.45547 0.207544 0
1.47821 0.253773 0
1.43273 0.253773 0
4.48011 0.0462289 0
4.45737 0.092458 0
4.41189 0.0924581 0
4.38915 0.0462292 0
4.43463 0.0462291 0
4.75301 0.0462279 0
4.73027 0.092457 0
4.68479 0.0924571 0
4.66205 0.0462282 0
4.70753 0.0462281 0
5.02591 0.0462268 0
5.00317 0.0924559 0
4.95769 0.0924561 0
4.93495 0.0462272 0
4.98043 0.046227 0
1.11434 0.253772 0
1.13708 0.207543 0
1.18257 0.207543 0
1.20531 0.253772 0
1.15983 0.253772 0
5.29838 0.0496733 0
5.2752 0.0993499 0
5.22972 0.09935 0
5.20741 0.0496736 0
5.25289 0.0496734 0
0.841442 0.253772 0
0.864184 0.207543 0
0.909667 0.207543 0
0.932409 0.253772 0
0.886926 0.253772 0
0.387729 0.0507958 0
0.366107 0.101591 0
0.320624 0.101591 0
0.296762 0.0507957 0
0.342246 0.0507958 0
5.70889 0.050119 0
5.68687 0.100243 0
5.6634 0.0501192 0
0.568542 0.253771 0
0.591284 0.207542 0
0.636767 0.207543 0
0.659509 0.253772 0
0.614025 0.253771 0
5.68687 0.200243 0
5.70889 0.250119 0
5.66341 0.250119 0
5.20741 0.249674 0
5.22972 0.19935 0
5.2752 0.19935 0
5.29838 0.249673 0
5.25289 0.249673 0
0.659509 0.0537716 0
0.636767 0.107543 0
0.591284 0.107542 0
0.568542 0.0537714 0
0.614026 0.0537715 0
0.932409 0.053772 0
0.909668 0.107543 0
0.864184 0.107543 0
0.841443 0.0537718 0
0.886926 0.0537719 0
0.296762 0.250796 0
0.320624 0.201591 0
0.366107 0.201591 0
0.387729 0.250796 0
0.342245 0.250796 0
4.93495 0.246227 0
4.95769 0.192456 0
5.00317 0.192456 0
5.02591 0.246227 0
4.98043 0.246227 0
1.20531 0.0537725 0
1.18257 0.107543 0
1.13708 0.107543 0
1.11434 0.0537723 0
1.15983 0.0537724 0
[...]
CELL_DATA 232
POINT_DATA 1189
VECTORS Y Float64
0 0 0.0
6.00381 -2.09123e-06 0.0
6.00381 0.29999 0.0
0 0.3 0.0
0.13645 3.17914e-08 0.0
0.2729 1.11483e-07 0.0
0.409351 2.32599e-07 0.0
0.545801 3.89027e-07 0.0
0.682251 5.74714e-07 0.0
0.818701 7.83699e-07 0.0
0.955151 1.01013e-06 0.0
1.0916 1.24826e-06 0.0
1.22805 1.49252e-06 0.0
1.3645 1.7375e-06 0.0
1.50095 1.97799e-06 0.0
1.6374 2.20901e-06 0.0
1.77385 2.42585e-06 0.0
1.9103 2.62407e-06 0.0
2.04675 2.79958e-06 0.0
2.1832 2.94862e-06 0.0
2.31965 3.06781e-06 0.0
2.4561 3.15416e-06 0.0
2.59255 3.20512e-06 0.0
2.729 3.21856e-06 0.0
2.86545 3.19282e-06 0.0
3.0019 3.12669e-06 0.0
3.13835 3.01942e-06 0.0
3.2748 2.87073e-06 0.0
3.41125 2.68081e-06 0.0
3.5477 2.4503e-06 0.0
3.68415 2.18024e-06 0.0
3.8206 1.87209e-06 0.0
3.95705 1.52767e-06 0.0
4.0935 1.14914e-06 0.0
4.22995 7.3892e-07 0.0
4.3664 2.99704e-07 0.0
4.50285 -1.6565e-07 0.0
4.6393 -6.54116e-07 0.0
4.77575 -1.16262e-06 0.0
4.9122 -1.68804e-06 0.0
5.04865 -2.22733e-06 0.0
5.1851 -2.77752e-06 0.0
5.32155 -3.33578e-06 0.0
5.458 -3.89947e-06 0.0
5.59445 -4.4686e-06 0.0
5.7309 -5.0641e-06 0.0
5.86736 -5.70432e-06 0.0
0.0454834 4.62573e-09 0.0
0.0909668 1.5449e-08 0.0
0.181934 5.33706e-08 0.0
0.227417 8.00122e-08 0.0
0.318384 1.47555e-07 0.0
0.363867 1.88002e-07 0.0
0.454834 2.81121e-07 0.0
0.500317 3.33337e-07 0.0
0.591284 4.47966e-07 0.0
0.636767 5.09935e-07 0.0
0.727734 6.42082e-07 0.0
0.773218 7.11815e-07 0.0
0.864184 8.57521e-07 0.0
0.909668 9.33067e-07 0.0
1.00063 1.08849e-06 0.0
1.04612 1.16793e-06 0.0
1.13708 1.32927e-06 0.0
1.18257 1.41076e-06 0.0
1.27353 1.57437e-06 0.0
1.31902 1.6561e-06 0.0
1.40998 1.81841e-06 0.0
1.45547 1.89863e-06 0.0
1.54644 2.0563e-06 0.0
1.59192 2.13336e-06 0.0
1.68289 2.28308e-06 0.0
1.72837 2.35542e-06 0.0
1.81934 2.49421e-06 0.0
1.86482 2.56033e-06 0.0
1.95579 2.68528e-06 0.0
2.00127 2.74383e-06 0.0
2.09224 2.85239e-06 0.0
2.13772 2.90211e-06 0.0
2.22869 2.99181e-06 0.0
2.27417 3.03158e-06 0.0
2.36514 3.10039e-06 0.0
2.41062 3.1292e-06 0.0
2.50159 3.17519e-06 0.0
2.54707 3.1922e-06 0.0
2.63804 3.21388e-06 0.0
2.68352 3.21838e-06 0.0
2.77449 3.2144e-06 0.0
2.81997 3.20583e-06 0.0
2.91094 3.17533e-06 0.0
2.95642 3.15329e-06 0.0
3.04739 3.09551e-06 0.0
3.09287 3.05976e-06 0.0
3.18384 2.97448e-06 0.0
3.22932 2.92491e-06 0.0
3.32029 2.81197e-06 0.0
3.36577 2.74866e-06 0.0
3.45674 2.60846e-06 0.0
3.50222 2.53161e-06 0.0
3.59319 2.36459e-06 0.0
3.63867 2.27455e-06 0.0
3.72964 2.08169e-06 0.0
3.77512 1.97895e-06 0.0
3.86609 1.76121e-06 0.0
3.91157 1.64637e-06 0.0
4.00254 1.40519e-06 0.0
4.04802 1.27898e-06 0.0
4.13899 1.01579e-06 0.0
4.18447 8.79012e-07 0.0
4.27544 5.95608e-07 0.0
4.32092 4.49165e-07 0.0
4.41189 1.4734e-07 0.0
4.45737 -7.81595e-09 0.0
4.54834 -3.26051e-07 0.0
4.59382 -4.88914e-07 0.0
4.68479 -8.21544e-07 0.0
4.73027 -9.91085e-07 0.0
4.82124 -1.33604e-06 0.0
4.86672 -1.51122e-06 0.0
4.95769 -1.86641e-06 0.0
5.00317 -2.04621e-06 0.0
5.09414 -2.40966e-06 0.0
5.13962 -2.5931e-06 0.0
5.23059 -2.96284e-06 0.0
5.27607 -3.14896e-06 0.0
5.36704 -3.52319e-06 0.0
5.41252 -3.71111e-06 0.0
5.50349 -4.08829e-06 0.0
5.54897 -4.27786e-06 0.0
5.63994 -4.662e-06 0.0
5.68542 -4.8599e-06 0.0
5.77639 -5.28188e-06 0.0
5.82187 -5.50645e-06 0.0
5.91284 -6.32856e-06 0.0
5.95832 -6.56274e-06 0.0
6.00381 0.0749938 0.0
6.00381 0.149994 0.0
6.00381 0.224994 0.0
6.0038 0.0249969 0.0
6.0038 0.049995 0.0
6.0038 0.0999945 0.0
6.0038 0.124993 0.0
6.0038 0.174994 0.0
6.0038 0.199993 0.0
6.0038 0.249993 0.0
6.00381 0.274991 0.0
5.86736 0.299994 0.0
5.73091 0.299995 0.0
5.59446 0.299996 0.0
5.45801 0.299996 0.0
5.32156 0.299997 0.0
5.18511 0.299997 0.0
5.04866 0.299998 0.0
4.91221 0.299998 0.0
4.77576 0.299999 0.0
4.6393 0.299999 0.0
4.50285 0.3 0.0
4.3664 0.3 0.0
4.22995 0.300001 0.0
4.0935 0.300001 0.0
3.95705 0.300002 0.0
3.8206 0.300002 0.0
3.68415 0.300002 0.0
3.5477 0.300002 0.0
3.41125 0.300003 0.0
3.2748 0.300003 0.0
3.13835 0.300003 0.0
3.0019 0.300003 0.0
2.86545 0.300003 0.0
2.729 0.300003 0.0
2.59255 0.300003 0.0
2.4561 0.300003 0.0
2.31965 0.300003 0.0
2.1832 0.300003 0.0
2.04675 0.300003 0.0
1.9103 0.300003 0.0
1.77385 0.300002 0.0
1.6374 0.300002 0.0
1.50095 0.300002 0.0
1.3645 0.300002 0.0
1.22805 0.300001 0.0
1.0916 0.300001 0.0
0.955151 0.300001 0.0
0.818701 0.300001 0.0
0.68225 0.300001 0.0
0.5458 0.3 0.0
0.40935 0.3 0.0
0.2729 0.3 0.0
0.13645 0.3 0.0
5.95832 0.299995 0.0
5.91284 0.299995 0.0
5.82187 0.299995 0.0
5.77639 0.299995 0.0
5.68542 0.299995 0.0
5.63994 0.299995 0.0
5.54897 0.299996 0.0
5.50349 0.299996 0.0
5.41252 0.299996 0.0
5.36704 0.299996 0.0
5.27607 0.299997 0.0
5.23059 0.299997 0.0
5.13962 0.299997 0.0
5.09414 0.299998 0.0
5.00317 0.299998 0.0
4.95769 0.299998 0.0
4.86672 0.299998 0.0
4.82124 0.299999 0.0
4.73027 0.299999 0.0
4.68479 0.299999 0.0
4.59382 0.3 0.0
4.54834 0.3 0.0
4.45737 0.3 0.0
4.41189 0.3 0.0
4.32092 0.3 0.0
4.27544 0.300001 0.0
4.18447 0.300001 0.0
4.13899 0.300001 0.0
4.04802 0.300001 0.0
4.00254 0.300001 0.0
3.91157 0.300002 0.0
3.86609 0.300002 0.0
3.77512 0.300002 0.0
3.72964 0.300002 0.0
3.63867 0.300002 0.0
3.59319 0.300002 0.0
3.50222 0.300003 0.0
3.45674 0.300003 0.0
3.36577 0.300003 0.0
3.32029 0.300003 0.0
3.22932 0.300003 0.0
3.18384 0.300003 0.0
3.09287 0.300003 0.0
3.04739 0.300003 0.0
2.95642 0.300003 0.0
2.91094 0.300003 0.0
2.81997 0.300003 0.0
2.77449 0.300003 0.0
2.68352 0.300003 0.0
2.63804 0.300003 0.0
2.54707 0.300003 0.0
2.50159 0.300003 0.0
2.41062 0.300003 0.0
2.36514 0.300003 0.0
2.27417 0.300003 0.0
2.22869 0.300003 0.0
2.13772 0.300003 0.0
2.09224 0.300003 0.0
2.00127 0.300003 0.0
1.95578 0.300003 0.0
1.86482 0.300003 0.0
1.81933 0.300002 0.0
1.72837 0.300002 0.0
1.68288 0.300002 0.0
1.59192 0.300002 0.0
1.54643 0.300002 0.0
1.45547 0.300002 0.0
1.40998 0.300002 0.0
1.31902 0.300002 0.0
1.27353 0.300002 0.0
1.18257 0.300001 0.0
1.13708 0.300001 0.0
1.04612 0.300001 0.0
1.00063 0.300001 0.0
0.909667 0.300001 0.0
0.864184 0.300001 0.0
0.773217 0.300001 0.0
0.727734 0.300001 0.0
0.636767 0.300001 0.0
0.591284 0.3 0.0
0.500317 0.3 0.0
0.454834 0.3 0.0
0.363867 0.3 0.0
0.318384 0.3 0.0
0.227417 0.3 0.0
0.181933 0.3 0.0
0.0909667 0.3 0.0
0.0454834 0.3 0.0
0 0.225 0.0
0 0.15 0.0
0 0.075 0.0
0 0.275 0.0
0 0.25 0.0
0 0.2 0.0
0 0.175 0.0
0 0.125 0.0
0 0.1 0.0
0 0.05 0.0
0 0.025 0.0
5.85303 0.149994 0.0
0.150777 0.15 0.0
0.344486 0.152387 0.0
5.66485 0.150367 0.0
0.614026 0.161314 0.0
5.25202 0.149026 0.0
0.886926 0.161314 0.0
1.15983 0.161314 0.0
4.98043 0.138685 0.0
1.43273 0.161315 0.0
1.70563 0.161315 0.0
3.88883 0.138689 0.0
1.97853 0.161316 0.0
4.16173 0.138688 0.0
4.70753 0.138686 0.0
4.43463 0.138687 0.0
3.61593 0.138689 0.0
2.25143 0.161316 0.0
3.34303 0.13869 0.0
2.52433 0.161316 0.0
2.79723 0.161316 0.0
3.07013 0.150003 0.0
5.50555 0.155405 0.0
2.93368 0.107019 0.0
5.11662 0.192788 0.0
0.478248 0.107493 0.0
1.02338 0.109279 0.0
0.750476 0.109279 0.0
4.84398 0.19072 0.0
1.29628 0.10928 0.0
4.29818 0.190722 0.0
4.02528 0.190723 0.0
1.56918 0.10928 0.0
4.57108 0.190721 0.0
1.84208 0.109281 0.0
2.11498 0.109281 0.0
3.75238 0.190724 0.0
2.38788 0.109281 0.0
3.47948 0.190724 0.0
2.66078 0.109281 0.0
3.20658 0.192987 0.0
5.38538 0.105035 0.0
5.93687 0.102928 0.0
5.94478 0.20465 0.0
0.0669367 0.197066 0.0
0.0590274 0.0953444 0.0
0.239539 0.102235 0.0
5.76272 0.102269 0.0
5.38601 0.20728 0.0
3.20658 0.0905947 0.0
2.66078 0.214899 0.0
3.47948 0.0851072 0.0
5.11666 0.0904229 0.0
2.38788 0.214898 0.0
2.11498 0.214898 0.0
3.75238 0.0851067 0.0
1.84208 0.214898 0.0
1.56918 0.214897 0.0
0.750476 0.214896 0.0
1.02338 0.214896 0.0
1.29628 0.214897 0.0
4.02528 0.085106 0.0
0.477987 0.213803 0.0
4.84398 0.0851032 0.0
4.29818 0.0851052 0.0
4.57108 0.0851042 0.0
2.93368 0.209411 0.0
5.76997 0.202988 0.0
0.234128 0.203137 0.0
5.64139 0.200243 0.0
5.61792 0.250119 0.0
5.56482 0.251799 0.0
5.53519 0.203602 0.0
5.55865 0.153725 0.0
5.61175 0.152046 0.0
5.58829 0.201922 0.0
5.61792 0.0501194 0.0
5.64139 0.100243 0.0
5.53519 0.103602 0.0
5.56482 0.0517985 0.0
5.58829 0.101922 0.0
5.47386 0.251799 0.0
5.4897 0.203602 0.0
5.51934 0.251799 0.0
5.4897 0.103602 0.0
5.47385 0.0517989 0.0
5.51934 0.0517987 0.0
3.11561 0.050003 0.0
3.09287 0.100003 0.0
3.04739 0.100003 0.0
3.02464 0.0500031 0.0
3.07013 0.0500031 0.0
2.75174 0.253774 0.0
2.77449 0.207545 0.0
2.81997 0.207545 0.0
2.84271 0.253774 0.0
2.79723 0.253774 0.0
2.47884 0.253774 0.0
2.50159 0.207545 0.0
2.54707 0.207545 0.0
2.56981 0.253774 0.0
2.52433 0.253774 0.0
3.38851 0.0462317 0.0
3.36577 0.0924607 0.0
3.32029 0.0924608 0.0
3.29754 0.0462318 0.0
3.34303 0.0462318 0.0
2.20594 0.253774 0.0
2.22869 0.207545 0.0
2.27417 0.207545 0.0
2.29691 0.253774 0.0
2.25143 0.253774 0.0
3.66141 0.0462312 0.0
3.63867 0.0924602 0.0
3.59319 0.0924603 0.0
3.57044 0.0462314 0.0
3.61593 0.0462313 0.0
1.93304 0.253774 0.0
1.95579 0.207545 0.0
2.00127 0.207545 0.0
2.02401 0.253774 0.0
1.97853 0.253774 0.0
3.93431 0.0462306 0.0
3.91157 0.0924596 0.0
3.86609 0.0924597 0.0
3.84335 0.0462308 0.0
3.88883 0.0462307 0.0
1.66014 0.253773 0.0
1.68288 0.207544 0.0
1.72837 0.207544 0.0
1.75111 0.253773 0.0
1.70563 0.253773 0.0
4.20721 0.0462298 0.0
4.18447 0.0924588 0.0
4.13899 0.092459 0.0
4.11625 0.0462301 0.0
4.16173 0.0462299 0.0
1.38724 0.253773 0.0
1.40998 0.207544 0.0
1.45547 0.207544 0.0
1.47821 0.253773 0.0
1.43273 0.253773 0.0
4.48011 0.0462289 0.0
4.45737 0.092458 0.0
4.41189 0.0924581 0.0
4.38915 0.0462292 0.0
4.43463 0.0462291 0.0
4.75301 0.0462279 0.0
4.73027 0.092457 0.0
4.68479 0.0924571 0.0
4.66205 0.0462282 0.0
4.70753 0.0462281 0.0
5.02591 0.0462268 0.0
5.00317 0.0924559 0.0
4.95769 0.0924561 0.0
4.93495 0.0462272 0.0
4.98043 0.046227 0.0
1.11434 0.253772 0.0
1.13708 0.207543 0.0
1.18257 0.207543 0.0
1.20531 0.253772 0.0
1.15983 0.253772 0.0
5.29838 0.0496733 0.0
5.2752 0.0993499 0.0
5.22972 0.09935 0.0
5.20741 0.0496736 0.0
5.25289 0.0496734 0.0
0.841442 0.253772 0.0
0.864184 0.207543 0.0
0.909667 0.207543 0.0
0.932409 0.253772 0.0
0.886926 0.253772 0.0
0.387729 0.0507958 0.0
0.366107 0.101591 0.0
0.320624 0.101591 0.0
0.296762 0.0507957 0.0
0.342246 0.0507958 0.0
5.70889 0.050119 0.0
5.68687 0.100243 0.0
5.6634 0.0501192 0.0
0.568542 0.253771 0.0
0.591284 0.207542 0.0
0.636767 0.207543 0.0
0.659509 0.253772 0.0
0.614025 0.253771 0.0
5.68687 0.200243 0.0
5.70889 0.250119 0.0
5.66341 0.250119 0.0
5.20741 0.249674 0.0
5.22972 0.19935 0.0
5.2752 0.19935 0.0
5.29838 0.249673 0.0
5.25289 0.249673 0.0
0.659509 0.0537716 0.0
0.636767 0.107543 0.0
0.591284 0.107542 0.0
0.568542 0.0537714 0.0
0.614026 0.0537715 0.0
0.932409 0.053772 0.0
0.909668 0.107543 0.0
0.864184 0.107543 0.0
0.841443 0.0537718 0.0
0.886926 0.0537719 0.0
0.296762 0.250796 0.0
0.320624 0.201591 0.0
0.366107 0.201591 0.0
0.387729 0.250796 0.0
0.342245 0.250796 0.0
4.93495 0.246227 0.0
4.95769 0.192456 0.0
5.00317 0.192456 0.0
5.02591 0.246227 0.0
4.98043 0.246227 0.0
1.20531 0.0537725 0.0
1.18257 0.107543 0.0
1.13708 0.107543 0.0
1.11434 0.0537723 0.0
1.15983 0.0537724 0.0
1.47821 0.053773 0.0
1.45547 0.107544 0.0
1.40998 0.107544 0.0
1.38724 0.0537728 0.0
1.43273 0.0537729 0.0
1.75111 0.0537734 0.0
1.72837 0.107544 0.0
1.68288 0.107544 0.0
1.66014 0.0537733 0.0
1.70563 0.0537733 0.0
3.84335 0.246231 0.0
3.86609 0.19246 0.0
3.91157 0.19246 0.0
3.93431 0.246231 0.0
3.88883 0.246231 0.0
2.02401 0.0537738 0.0
2.00127 0.107545 0.0
1.95579 0.107545 0.0
1.93304 0.0537737 0.0
1.97853 0.0537737 0.0
4.11625 0.24623 0.0
4.13899 0.192459 0.0
4.18447 0.192459 0.0
4.20721 0.24623 0.0
4.16173 0.24623 0.0
3.57045 0.246231 0.0
3.59319 0.19246 0.0
3.63867 0.19246 0.0
3.66141 0.246231 0.0
3.61593 0.246231 0.0
4.66205 0.246228 0.0
4.68479 0.192457 0.0
4.73027 0.192457 0.0
4.75301 0.246228 0.0
4.70753 0.246228 0.0
4.38915 0.246229 0.0
4.41189 0.192458 0.0
4.45737 0.192458 0.0
4.48011 0.246229 0.0
4.43463 0.246229 0.0
2.29691 0.0537741 0.0
2.27417 0.107545 0.0
2.22869 0.107545 0.0
2.20594 0.053774 0.0
2.25143 0.053774 0.0
3.29754 0.246232 0.0
3.32029 0.192461 0.0
3.36577 0.192461 0.0
3.38851 0.246232 0.0
3.34303 0.246232 0.0
2.56981 0.0537742 0.0
2.54707 0.107545 0.0
2.50159 0.107545 0.0
2.47884 0.0537742 0.0
2.52433 0.0537742 0.0
2.84271 0.0537742 0.0
2.81997 0.107545 0.0
2.77449 0.107545 0.0
2.75174 0.0537742 0.0
2.79723 0.0537742 0.0
3.02464 0.250003 0.0
3.04739 0.200003 0.0
3.09287 0.200003 0.0
3.11561 0.250003 0.0
3.07013 0.250003 0.0
3.02464 0.135675 0.0
2.97916 0.121347 0.0
2.95642 0.0713468 0.0
2.97916 0.035675 0.0
3.0019 0.085675 0.0
2.88819 0.035675 0.0
2.91094 0.0713469 0.0
2.88819 0.125118 0.0
2.84271 0.143217 0.0
2.86545 0.0894461 0.0
0.432316 0.0358312 0.0
0.455282 0.0716622 0.0
0.43366 0.122458 0.0
0.389073 0.137422 0.0
0.410695 0.0866268 0.0
5.16228 0.264261 0.0
5.13945 0.228524 0.0
5.16175 0.178201 0.0
5.20689 0.163614 0.0
5.18458 0.213937 0.0
0.568766 0.143373 0.0
0.523507 0.125433 0.0
0.500765 0.0716623 0.0
0.523283 0.0358313 0.0
0.546025 0.0896024 0.0
0.704992 0.0364267 0.0
0.727734 0.0728527 0.0
0.704992 0.126624 0.0
0.659509 0.143969 0.0
0.682251 0.0901976 0.0
0.841442 0.143969 0.0
0.795959 0.126624 0.0
0.773218 0.0728528 0.0
0.795959 0.0364268 0.0
0.818701 0.0901979 0.0
0.977893 0.0364271 0.0
1.00063 0.0728532 0.0
0.977893 0.126624 0.0
0.932409 0.143969 0.0
0.955151 0.0901981 0.0
5.02583 0.156719 0.0
5.07122 0.174754 0.0
5.09396 0.228524 0.0
5.07131 0.264261 0.0
5.04857 0.21049 0.0
1.11434 0.143969 0.0
1.06886 0.126624 0.0
1.04612 0.0728533 0.0
1.06886 0.0364273 0.0
1.0916 0.0901983 0.0
1.25079 0.0364276 0.0
1.27353 0.0728537 0.0
1.25079 0.126625 0.0
1.20531 0.14397 0.0
1.22805 0.0901986 0.0
1.38724 0.14397 0.0
1.34176 0.126625 0.0
1.31902 0.0728538 0.0
1.34176 0.0364277 0.0
1.3645 0.0901988 0.0
1.52369 0.0364281 0.0
1.54643 0.0728542 0.0
1.52369 0.126625 0.0
1.47821 0.14397 0.0
1.50095 0.090199 0.0
4.88946 0.263572 0.0
4.86672 0.227146 0.0
4.88946 0.173375 0.0
4.93495 0.15603 0.0
4.9122 0.209801 0.0
1.66014 0.14397 0.0
1.61466 0.126625 0.0
1.59192 0.0728542 0.0
1.61466 0.0364282 0.0
1.6374 0.0901993 0.0
1.79659 0.0364285 0.0
1.81934 0.0728546 0.0
1.79659 0.126626 0.0
1.75111 0.14397 0.0
1.77385 0.0901995 0.0
3.93431 0.156033 0.0
3.9798 0.173378 0.0
4.00254 0.227149 0.0
3.9798 0.263575 0.0
3.95705 0.209804 0.0
4.07076 0.263575 0.0
4.04802 0.227149 0.0
4.07076 0.173378 0.0
4.11625 0.156033 0.0
4.0935 0.209804 0.0
3.79786 0.263576 0.0
3.77512 0.22715 0.0
3.79786 0.173379 0.0
3.84335 0.156034 0.0
3.8206 0.209805 0.0
4.20721 0.156033 0.0
4.2527 0.173378 0.0
4.27544 0.227148 0.0
4.2527 0.263575 0.0
4.22995 0.209804 0.0
4.75301 0.156031 0.0
4.7985 0.173376 0.0
4.82124 0.227147 0.0
4.7985 0.263573 0.0
4.77575 0.209802 0.0
4.34366 0.263574 0.0
4.32092 0.227148 0.0
4.34366 0.173377 0.0
4.38915 0.156032 0.0
4.3664 0.209803 0.0
4.61656 0.263573 0.0
4.59382 0.227147 0.0
4.61656 0.173376 0.0
4.66205 0.156031 0.0
4.6393 0.209802 0.0
1.93304 0.143971 0.0
1.88756 0.126626 0.0
1.86482 0.0728547 0.0
1.88756 0.0364286 0.0
1.9103 0.0901997 0.0
2.06949 0.0364289 0.0
2.09224 0.072855 0.0
2.06949 0.126626 0.0
2.02401 0.143971 0.0
2.04675 0.0901999 0.0
4.48011 0.156032 0.0
4.5256 0.173377 0.0
4.54834 0.227148 0.0
4.5256 0.263574 0.0
4.50285 0.209803 0.0
3.66141 0.156034 0.0
3.7069 0.173379 0.0
3.72964 0.22715 0.0
3.7069 0.263576 0.0
3.68415 0.209805 0.0
3.52496 0.263576 0.0
3.50222 0.22715 0.0
3.52496 0.173379 0.0
3.57045 0.156034 0.0
3.5477 0.209805 0.0
2.20594 0.143971 0.0
2.16046 0.126626 0.0
2.13772 0.072855 0.0
2.16046 0.036429 0.0
2.1832 0.0902 0.0
2.34239 0.0364291 0.0
2.36514 0.0728552 0.0
2.34239 0.126626 0.0
2.29691 0.143971 0.0
2.31965 0.0902001 0.0
2.47884 0.143971 0.0
2.43336 0.126626 0.0
2.41062 0.0728552 0.0
2.43336 0.0364292 0.0
2.4561 0.0902002 0.0
2.61529 0.0364293 0.0
2.63804 0.0728553 0.0
2.61529 0.126626 0.0
2.56981 0.143971 0.0
2.59255 0.0902003 0.0
3.38851 0.156035 0.0
3.43399 0.17338 0.0
3.45674 0.227151 0.0
3.434 0.263577 0.0
3.41125 0.209806 0.0
3.25206 0.264331 0.0
3.22932 0.228659 0.0
3.25206 0.174888 0.0
3.29754 0.156789 0.0
3.2748 0.21056 0.0
2.75174 0.143971 0.0
2.70626 0.126626 0.0
2.68352 0.0728553 0.0
2.70626 0.0364293 0.0
2.729 0.0902003 0.0
3.11561 0.164331 0.0
3.16109 0.178659 0.0
3.18384 0.228659 0.0
3.16109 0.264331 0.0
3.13835 0.214331 0.0
2.84271 0.177348 0.0
2.88819 0.19338 0.0
2.91094 0.239609 0.0
2.88819 0.269806 0.0
2.86545 0.223577 0.0
3.29754 0.122658 0.0
3.25206 0.106626 0.0
3.22932 0.0603974 0.0
3.25206 0.0302001 0.0
3.2748 0.0764291 0.0
2.56981 0.179177 0.0
2.61529 0.197038 0.0
2.63804 0.243267 0.0
2.61529 0.271635 0.0
2.59255 0.225406 0.0
2.29691 0.179177 0.0
2.34239 0.197038 0.0
2.36514 0.243267 0.0
2.34239 0.271635 0.0
2.31965 0.225406 0.0
3.57044 0.120829 0.0
3.52496 0.102968 0.0
3.50222 0.056739 0.0
3.52496 0.0283707 0.0
3.5477 0.0745996 0.0
2.02401 0.179177 0.0
2.06949 0.197037 0.0
2.09224 0.243266 0.0
2.06949 0.271635 0.0
2.04675 0.225406 0.0
3.84335 0.120828 0.0
3.79786 0.102967 0.0
3.77512 0.0567384 0.0
3.79786 0.0283701 0.0
3.8206 0.0745991 0.0
1.75111 0.179176 0.0
1.79659 0.197037 0.0
1.81933 0.243266 0.0
1.79659 0.271634 0.0
1.77385 0.225405 0.0
4.11625 0.120827 0.0
4.07076 0.102967 0.0
4.04802 0.0567377 0.0
4.07076 0.0283694 0.0
4.0935 0.0745983 0.0
4.38915 0.120826 0.0
4.34366 0.102966 0.0
4.32092 0.0567369 0.0
4.34366 0.0283686 0.0
4.3664 0.0745975 0.0
4.66205 0.120825 0.0
4.61656 0.102965 0.0
4.59382 0.0567359 0.0
4.61656 0.0283676 0.0
4.6393 0.0745965 0.0
1.47821 0.179176 0.0
1.52369 0.197037 0.0
1.54643 0.243266 0.0
1.52369 0.271634 0.0
1.50095 0.225405 0.0
4.93495 0.120824 0.0
4.88946 0.102964 0.0
4.86672 0.0567349 0.0
4.88946 0.0283666 0.0
4.9122 0.0745955 0.0
1.20531 0.179175 0.0
1.25079 0.197036 0.0
1.27353 0.243265 0.0
1.25079 0.271633 0.0
1.22805 0.225404 0.0
5.2069 0.129492 0.0
5.16178 0.109957 0.0
5.13947 0.060281 0.0
5.16229 0.0301391 0.0
5.18459 0.0798155 0.0
0.932409 0.179175 0.0
0.977893 0.197036 0.0
1.00063 0.243265 0.0
0.977892 0.271633 0.0
0.955151 0.225404 0.0
0.659509 0.179174 0.0
0.704992 0.197035 0.0
0.727734 0.243264 0.0
0.704992 0.271632 0.0
0.682251 0.225403 0.0
0.388986 0.172859 0.0
0.433486 0.193331 0.0
0.455108 0.242535 0.0
0.432229 0.271268 0.0
0.410608 0.222063 0.0
0.523196 0.271268 0.0
0.500591 0.242535 0.0
0.523333 0.196306 0.0
0.568679 0.17881 0.0
0.545938 0.225039 0.0
0.795959 0.271633 0.0
0.773217 0.243264 0.0
0.795959 0.197035 0.0
0.841442 0.179175 0.0
0.818701 0.225404 0.0
2.97916 0.269806 0.0
2.95642 0.239609 0.0
2.97916 0.189609 0.0
3.02464 0.169806 0.0
3.0019 0.219806 0.0
1.06886 0.271633 0.0
1.04612 0.243265 0.0
1.06886 0.197036 0.0
1.11434 0.179175 0.0
1.0916 0.225404 0.0
1.34176 0.271633 0.0
1.31902 0.243265 0.0
1.34176 0.197036 0.0
1.38724 0.179176 0.0
1.3645 0.225405 0.0
5.07132 0.0301395 0.0
5.09399 0.0602812 0.0
5.07125 0.10651 0.0
5.02584 0.122598 0.0
5.04858 0.0763685 0.0
4.7985 0.028367 0.0
4.82124 0.0567351 0.0
4.7985 0.102964 0.0
4.75301 0.120825 0.0
4.77575 0.074596 0.0
1.61466 0.271634 0.0
1.59192 0.243266 0.0
1.61466 0.197037 0.0
1.66014 0.179176 0.0
1.6374 0.225405 0.0
4.5256 0.028368 0.0
4.54834 0.0567361 0.0
4.5256 0.102965 0.0
4.48011 0.120826 0.0
4.50285 0.074597 0.0
4.2527 0.0283689 0.0
4.27544 0.056737 0.0
4.2527 0.102966 0.0
4.20721 0.120827 0.0
4.22995 0.0745979 0.0
3.9798 0.0283697 0.0
4.00254 0.0567378 0.0
3.9798 0.102967 0.0
3.93431 0.120828 0.0
3.95705 0.0745987 0.0
1.88756 0.271634 0.0
1.86482 0.243266 0.0
1.88756 0.197037 0.0
1.93304 0.179176 0.0
1.9103 0.225405 0.0
3.70689 0.0283703 0.0
3.72964 0.0567385 0.0
3.7069 0.102968 0.0
3.66141 0.120828 0.0
3.68415 0.0745994 0.0
2.16046 0.271635 0.0
2.13772 0.243266 0.0
2.16046 0.197038 0.0
2.20594 0.179177 0.0
2.1832 0.225406 0.0
2.43336 0.271635 0.0
2.41062 0.243267 0.0
2.43336 0.197038 0.0
2.47884 0.179177 0.0
2.4561 0.225406 0.0
3.43399 0.0283709 0.0
3.45674 0.056739 0.0
3.43399 0.102968 0.0
3.38851 0.120829 0.0
3.41125 0.0745999 0.0
2.70626 0.271635 0.0
2.68352 0.243267 0.0
2.70626 0.197038 0.0
2.75174 0.179177 0.0
2.729 0.225406 0.0
3.16109 0.0302002 0.0
3.18384 0.0603975 0.0
3.16109 0.110397 0.0
3.11561 0.1302 0.0
3.13835 0.0802003 0.0
5.29669 0.168444 0.0
5.34135 0.187862 0.0