# vtk DataFile Version 2.0
FEM, Created by Wutzow
ASCII
DATASET UNSTRUCTURED_GRID
POINTS 1189 Float64
0 0 0
6.00559 -2.20256e-06 0
6.00559 0.299985 0
0 0.3 0
0.136489 2.73e-10 0
0.272978 2.15714e-08 0
0.409467 7.19957e-08 0
0.545956 1.59895e-07 0
0.682445 2.90895e-07 0
0.818934 4.70695e-07 0
0.955423 7.01707e-07 0
1.09191 9.87282e-07 0
1.2284 1.32379e-06 0
1.36489 1.71176e-06 0
1.50138 2.14304e-06 0
1.63787 2.61141e-06 0
1.77436 3.10568e-06 0
1.91085 3.61415e-06 0
2.04734 4.12174e-06 0
2.18383 4.61278e-06 0
2.32032 5.06808e-06 0
2.45681 5.47134e-06 0
2.5933 5.80157e-06 0
2.72979 6.04079e-06 0
2.86628 6.17091e-06 0
3.00277 6.17697e-06 0
3.13926 6.0464e-06 0
3.27575 5.77653e-06 0
3.41224 5.37216e-06 0
3.54873 4.84393e-06 0
3.68522 4.20591e-06 0
3.82171 3.47244e-06 0
3.9582 2.66437e-06 0
4.09469 1.7948e-06 0
4.23118 8.89761e-07 0
4.36767 -3.97425e-08 0
4.50416 -9.66774e-07 0
4.64066 -1.88188e-06 0
4.77715 -2.76333e-06 0
4.91364 -3.60279e-06 0
5.05013 -4.38345e-06 0
5.18662 -5.10173e-06 0
5.32312 -5.75208e-06 0
5.45961 -6.34042e-06 0
5.5961 -6.89181e-06 0
5.73259 -7.4455e-06 0
5.86909 -8.04617e-06 0
0.0454963 -1.18909e-09 0
0.0909927 -1.59129e-09 0
0.181985 4.74073e-09 0
0.227482 1.16816e-08 0
0.318474 3.48855e-08 0
0.363971 5.14226e-08 0
0.454963 9.65462e-08 0
0.50046 1.25548e-07 0
0.591452 1.98936e-07 0
0.636949 2.42279e-07 0
0.727941 3.45124e-07 0
0.773438 4.04641e-07 0
0.864431 5.41941e-07 0
0.909927 6.18582e-07 0
1.00092 7.91271e-07 0
1.04642 8.86132e-07 0
1.13741 1.09374e-06 0
1.18291 1.20561e-06 0
1.2739 1.44828e-06 0
1.31939 1.57702e-06 0
1.41039 1.85089e-06 0
1.45588 1.99434e-06 0
1.54688 2.29623e-06 0
1.59237 2.45166e-06 0
1.68337 2.77388e-06 0
1.72886 2.93839e-06 0
1.81986 3.2745e-06 0
1.86535 3.44335e-06 0
1.95634 3.78458e-06 0
2.00184 3.95341e-06 0
2.09283 4.28869e-06 0
2.13833 4.45166e-06 0
2.22932 4.76959e-06 0
2.27482 4.92094e-06 0
2.36581 5.21002e-06 0
2.41131 5.3435e-06 0
2.5023 5.59056e-06 0
2.5478 5.70022e-06 0
2.63879 5.89325e-06 0
2.68429 5.972e-06 0
2.77528 6.09739e-06 0
2.82078 6.14027e-06 0
2.91177 6.18796e-06 0
2.95727 6.1887e-06 0
3.04826 6.14944e-06 0
3.09376 6.10536e-06 0
3.18475 5.97259e-06 0
3.23025 5.88114e-06 0
3.32124 5.65652e-06 0
3.36674 5.52083e-06 0
3.45773 5.21023e-06 0
3.50323 5.03242e-06 0
3.59422 4.6429e-06 0
3.63972 4.42928e-06 0
3.73071 3.9721e-06 0
3.77621 3.72566e-06 0
3.86721 3.21082e-06 0
3.9127 2.94049e-06 0
4.0037 2.38133e-06 0
4.04919 2.08921e-06 0
4.14019 1.49695e-06 0
4.18568 1.19458e-06 0
4.27668 5.82068e-07 0
4.32218 2.69743e-07 0
4.41317 -3.48657e-07 0
4.45867 -6.58565e-07 0
4.54966 -1.27377e-06 0
4.59516 -1.58105e-06 0
4.68615 -2.17915e-06 0
4.73165 -2.47381e-06 0
4.82264 -3.04798e-06 0
4.86814 -3.33024e-06 0
4.95914 -3.86944e-06 0
5.00463 -4.13056e-06 0
5.09563 -4.62885e-06 0
5.14113 -4.87008e-06 0
5.23212 -5.3258e-06 0
5.27762 -5.54363e-06 0
5.36861 -5.95257e-06 0
5.41411 -6.15019e-06 0
5.50511 -6.52647e-06 0
5.5506 -6.7114e-06 0
5.6416 -7.07235e-06 0
5.6871 -7.25743e-06 0
5.77809 -7.65291e-06 0
5.82359 -7.87327e-06 0
5.91458 -8.85254e-06 0
5.96008 -9.06832e-06 0
6.00559 0.0749917 0
6.00559 0.149992 0
6.00559 0.224991 0
6.00558 0.0249963 0
6.00558 0.0499934 0
6.00558 0.0999926 0
6.00558 0.124991 0
6.00558 0.174993 0
6.00558 0.19999 0
6.00558 0.24999 0
6.00558 0.274987 0
5.86909 0.299992 0
5.73259 0.299993 0
5.5961 0.299993 0
5.45961 0.299994 0
5.32312 0.299994 0
5.18663 0.299995 0
5.05013 0.299996 0
4.91364 0.299996 0
4.77715 0.299997 0
4.64066 0.299998 0
4.50417 0.299999 0
4.36767 0.3 0
4.23118 0.300001 0
4.09469 0.300002 0
3.9582 0.300003 0
3.82171 0.300003 0
3.68522 0.300004 0
3.54873 0.300005 0
3.41224 0.300005 0
3.27575 0.300006 0
3.13926 0.300006 0
3.00277 0.300006 0
2.86628 0.300006 0
2.72979 0.300006 0
2.5933 0.300006 0
2.45681 0.300005 0
2.32032 0.300005 0
2.18383 0.300005 0
2.04734 0.300004 0
1.91085 0.300004 0
1.77436 0.300003 0
1.63787 0.300003 0
1.50138 0.300002 0
1.36489 0.300002 0
1.2284 0.300001 0
1.09191 0.300001 0
0.955423 0.300001 0
0.818934 0.3 0
0.682445 0.3 0
0.545956 0.3 0
0.409467 0.3 0
0.272978 0.3 0
0.136489 0.3 0
5.96009 0.299993 0
5.91459 0.299993 0
5.82359 0.299992 0
5.77809 0.299993 0
5.6871 0.299993 0
5.6416 0.299993 0
5.5506 0.299993 0
5.50511 0.299993 0
5.41411 0.299994 0
5.36861 0.299994 0
5.27762 0.299994 0
5.23212 0.299995 0
5.14113 0.299995 0
5.09563 0.299995 0
5.00464 0.299996 0
4.95914 0.299996 0
4.86814 0.299997 0
4.82265 0.299997 0
4.73165 0.299998 0
4.68615 0.299998 0
4.59516 0.299998 0
4.54966 0.299999 0
4.45867 0.299999 0
4.41317 0.3 0
4.32218 0.3 0
4.27668 0.300001 0
4.18569 0.300001 0
4.14019 0.300001 0
4.0492 0.300002 0
4.0037 0.300002 0
3.9127 0.300003 0
3.86721 0.300003 0
3.77621 0.300004 0
3.73072 0.300004 0
3.63972 0.300004 0
3.59423 0.300005 0
3.50323 0.300005 0
3.45773 0.300005 0
3.36674 0.300006 0
3.32124 0.300006 0
3.23025 0.300006 0
3.18475 0.300006 0
3.09376 0.300006 0
3.04826 0.300006 0
2.95727 0.300006 0
2.91177 0.300006 0
2.82078 0.300006 0
2.77528 0.300006 0
2.68429 0.300006 0
2.63879 0.300006 0
2.5478 0.300006 0
2.5023 0.300006 0
2.41131 0.300005 0
2.36581 0.300005 0
2.27482 0.300005 0
2.22932 0.300005 0
2.13833 0.300004 0
2.09283 0.300004 0
2.00184 0.300004 0
1.95634 0.300004 0
1.86535 0.300003 0
1.81985 0.300003 0
1.72886 0.300003 0
1.68336 0.300003 0
1.59237 0.300002 0
1.54688 0.300002 0
1.45588 0.300002 0
1.41039 0.300002 0
1.31939 0.300002 0
1.2739 0.300001 0
1.1829 0.300001 0
1.13741 0.300001 0
1.04642 0.300001 0
1.00092 0.300001 0
0.909926 0.300001 0
0.86443 0.300001 0
0.773437 0.3 0
0.727941 0.3 0
0.636948 0.3 0
0.591452 0.3 0
0.500459 0.3 0
0.454963 0.3 0
0.363971 0.3 0
0.318474 0.3 0
0.227482 0.3 0
0.181985 0.3 0
0.0909926 0.3 0
0.0454963 0.3 0
0 0.225 0
0 0.15 0
0 0.075 0
0 0.275 0
0 0.25 0
0 0.2 0
0 0.175 0
0 0.125 0
0 0.1 0
0 0.05 0
0 0.025 0
5.85476 0.149992 0
0.15082 0.15 0
0.344584 0.152387 0
5.66652 0.150365 0
0.6142 0.161313 0
5.25356 0.149024 0
0.887178 0.161314 0
1.16016 0.161314 0
4.98189 0.138683 0
1.43314 0.161315 0
1.70611 0.161316 0
3.88995 0.13869 0
1.97909 0.161317 0
4.16294 0.138688 0
4.7089 0.138685 0
4.43592 0.138686 0
3.61697 0.138691 0
2.25207 0.161318 0
3.34399 0.138693 0
2.52505 0.161319 0
2.79803 0.161319 0
3.07101 0.150006 0
5.50717 0.155402 0
2.93452 0.107022 0
5.11812 0.192786 0
0.478384 0.107493 0
1.02367 0.109279 0
0.75069 0.109279 0
4.84539 0.190719 0
1.29665 0.10928 0
4.29943 0.190722 0
4.02645 0.190724 0
1.56962 0.109281 0
4.57241 0.19072 0
1.8426 0.109282 0
2.11558 0.109283 0
3.75346 0.190726 0
2.38856 0.109283 0
3.48048 0.190727 0
2.66154 0.109284 0
3.2075 0.19299 0
5.38696 0.105032 0
5.93862 0.102925 0
5.94653 0.204648 0
0.0669558 0.197066 0
0.0590442 0.0953444 0
0.239607 0.102235 0
5.76442 0.102266 0
5.38759 0.207277 0
3.2075 0.0905977 0
2.66154 0.214901 0
3.48048 0.0851098 0
5.11815 0.0904206 0
2.38856 0.214901 0
2.11558 0.2149 0
3.75346 0.0851085 0
1.8426 0.214899 0
1.56962 0.214898 0
0.750689 0.214896 0
1.02367 0.214896 0
1.29665 0.214897 0
4.02645 0.0851069 0
0.478123 0.213802 0
4.84539 0.0851015 0
4.29943 0.0851051 0
4.57241 0.0851032 0
2.93452 0.209414 0
5.77167 0.202986 0
0.234195 0.203137 0
5.64305 0.200241 0
5.61958 0.250117 0
5.56646 0.251796 0
5.53682 0.203599 0
5.56029 0.153723 0
5.61341 0.152044 0
5.58993 0.20192 0
5.61957 0.050117 0
5.64305 0.100241 0
5.53682 0.103599 0
5.56646 0.0517961 0
5.58993 0.10192 0
5.47546 0.251796 0
5.49132 0.203599 0
5.52096 0.251796 0
5.49132 0.103599 0
5.47546 0.0517965 0
5.52096 0.0517963 0
3.11651 0.0500061 0
3.09376 0.100006 0
3.04826 0.100006 0
3.02551 0.0500062 0
3.07101 0.0500061 0
2.75253 0.253777 0
2.77528 0.207548 0
2.82078 0.207548 0
2.84353 0.253777 0
2.79803 0.253777 0
2.47955 0.253777 0
2.5023 0.207548 0
2.5478 0.207548 0
2.57055 0.253777 0
2.52505 0.253777 0
3.38949 0.0462344 0
3.36674 0.0924635 0
3.32124 0.0924636 0
3.29849 0.0462347 0
3.34399 0.0462346 0
2.20657 0.253776 0
2.22932 0.207547 0
2.27482 0.207547 0
2.29757 0.253776 0
2.25207 0.253776 0
3.66247 0.0462333 0
3.63972 0.0924624 0
3.59422 0.0924626 0
3.57148 0.0462337 0
3.61697 0.0462335 0
1.9336 0.253775 0
1.95634 0.207546 0
2.00184 0.207546 0
2.02459 0.253775 0
1.97909 0.253775 0
3.93545 0.0462318 0
3.9127 0.0924609 0
3.86721 0.0924612 0
3.84446 0.0462323 0
3.88995 0.0462321 0
1.66062 0.253774 0
1.68337 0.207545 0
1.72886 0.207545 0
1.75161 0.253774 0
1.70611 0.253774 0
4.20843 0.04623 0
4.18568 0.0924592 0
4.14019 0.0924595 0
4.11744 0.0462306 0
4.16294 0.0462303 0
1.38764 0.253773 0
1.41039 0.207544 0
1.45588 0.207544 0
1.47863 0.253773 0
1.43313 0.253773 0
4.48142 0.0462282 0
4.45867 0.0924573 0
4.41317 0.0924576 0
4.39042 0.0462288 0
4.43592 0.0462285 0
4.7544 0.0462264 0
4.73165 0.0924555 0
4.68615 0.0924558 0
4.6634 0.0462269 0
4.7089 0.0462267 0
5.02738 0.0462247 0
5.00463 0.0924538 0
4.95914 0.0924541 0
4.93639 0.0462252 0
4.98189 0.046225 0
1.11466 0.253772 0
1.13741 0.207543 0
1.1829 0.207543 0
1.20565 0.253772 0
1.16016 0.253772 0
5.29993 0.0496709 0
5.27675 0.0993475 0
5.23125 0.0993477 0
5.20894 0.0496713 0
5.25443 0.0496711 0
0.841682 0.253772 0
0.86443 0.207543 0
0.909927 0.207543 0
0.932675 0.253772 0
0.887178 0.253772 0
0.387839 0.0507957 0
0.366211 0.101591 0
0.320715 0.101591 0
0.296847 0.0507956 0
0.342343 0.0507957 0
5.71057 0.0501166 0
5.68855 0.100241 0
5.66507 0.0501168 0
0.568704 0.253771 0
0.591452 0.207542 0
0.636949 0.207542 0
0.659697 0.253771 0
0.6142 0.253771 0
5.68855 0.200241 0
5.71057 0.250117 0
5.66507 0.250117 0
5.20894 0.249671 0
5.23125 0.199348 0
5.27675 0.199347 0
5.29993 0.249671 0
5.25443 0.249671 0
0.659697 0.0537713 0
0.636949 0.107542 0
0.591452 0.107542 0
0.568704 0.0537712 0
0.614201 0.0537712 0
0.932675 0.0537717 0
0.909927 0.107543 0
0.86443 0.107543 0
0.841682 0.0537715 0
0.887179 0.0537716 0
0.296847 0.250796 0
0.320715 0.201591 0
0.366211 0.201591 0
0.387839 0.250796 0
0.342343 0.250796 0
4.93639 0.246225 0
4.95914 0.192454 0
5.00464 0.192454 0
5.02738 0.246225 0
4.98189 0.246225 0
1.20565 0.0537723 0
1.18291 0.107543 0
1.13741 0.107543 0
1.11466 0.0537721 0
1.16016 0.0537722 0
[...]
CELL_DATA 232
POINT_DATA 1189
VECTORS Y Float64
0 0 0.0
6.00559 -2.20256e-06 0.0
6.00559 0.299985 0.0
0 0.3 0.0
0.136489 2.73e-10 0.0
0.272978 2.15714e-08 0.0
0.409467 7.19957e-08 0.0
0.545956 1.59895e-07 0.0
0.682445 2.90895e-07 0.0
0.818934 4.70695e-07 0.0
0.955423 7.01707e-07 0.0
1.09191 9.87282e-07 0.0
1.2284 1.32379e-06 0.0
1.36489 1.71176e-06 0.0
1.50138 2.14304e-06 0.0
1.63787 2.61141e-06 0.0
1.77436 3.10568e-06 0.0
1.91085 3.61415e-06 0.0
2.04734 4.12174e-06 0.0
2.18383 4.61278e-06 0.0
2.32032 5.06808e-06 0.0
2.45681 5.47134e-06 0.0
2.5933 5.80157e-06 0.0
2.72979 6.04079e-06 0.0
2.86628 6.17091e-06 0.0
3.00277 6.17697e-06 0.0
3.13926 6.0464e-06 0.0
3.27575 5.77653e-06 0.0
3.41224 5.37216e-06 0.0
3.54873 4.84393e-06 0.0
3.68522 4.20591e-06 0.0
3.82171 3.47244e-06 0.0
3.9582 2.66437e-06 0.0
4.09469 1.7948e-06 0.0
4.23118 8.89761e-07 0.0
4.36767 -3.97425e-08 0.0
4.50416 -9.66774e-07 0.0
4.64066 -1.88188e-06 0.0
4.77715 -2.76333e-06 0.0
4.91364 -3.60279e-06 0.0
5.05013 -4.38345e-06 0.0
5.18662 -5.10173e-06 0.0
5.32312 -5.75208e-06 0.0
5.45961 -6.34042e-06 0.0
5.5961 -6.89181e-06 0.0
5.73259 -7.4455e-06 0.0
5.86909 -8.04617e-06 0.0
0.0454963 -1.18909e-09 0.0
0.0909927 -1.59129e-09 0.0
0.181985 4.74073e-09 0.0
0.227482 1.16816e-08 0.0
0.318474 3.48855e-08 0.0
0.363971 5.14226e-08 0.0
0.454963 9.65462e-08 0.0
0.50046 1.25548e-07 0.0
0.591452 1.98936e-07 0.0
0.636949 2.42279e-07 0.0
0.727941 3.45124e-07 0.0
0.773438 4.04641e-07 0.0
0.864431 5.41941e-07 0.0
0.909927 6.18582e-07 0.0
1.00092 7.91271e-07 0.0
1.04642 8.86132e-07 0.0
1.13741 1.09374e-06 0.0
1.18291 1.20561e-06 0.0
1.2739 1.44828e-06 0.0
1.31939 1.57702e-06 0.0
1.41039 1.85089e-06 0.0
1.45588 1.99434e-06 0.0
1.54688 2.29623e-06 0.0
1.59237 2.45166e-06 0.0
1.68337 2.77388e-06 0.0
1.72886 2.93839e-06 0.0
1.81986 3.2745e-06 0.0
1.86535 3.44335e-06 0.0
1.95634 3.78458e-06 0.0
2.00184 3.95341e-06 0.0
2.09283 4.28869e-06 0.0
2.13833 4.45166e-06 0.0
2.22932 4.76959e-06 0.0
2.27482 4.92094e-06 0.0
2.36581 5.21002e-06 0.0
2.41131 5.3435e-06 0.0
2.5023 5.59056e-06 0.0
2.5478 5.70022e-06 0.0
2.63879 5.89325e-06 0.0
2.68429 5.972e-06 0.0
2.77528 6.09739e-06 0.0
2.82078 6.14027e-06 0.0
2.91177 6.18796e-06 0.0
2.95727 6.1887e-06 0.0
3.04826 6.14944e-06 0.0
3.09376 6.10536e-06 0.0
3.18475 5.97259e-06 0.0
3.23025 5.88114e-06 0.0
3.32124 5.65652e-06 0.0
3.36674 5.52083e-06 0.0
3.45773 5.21023e-06 0.0
3.50323 5.03242e-06 0.0
3.59422 4.6429e-06 0.0
3.63972 4.42928e-06 0.0
3.73071 3.9721e-06 0.0
3.77621 3.72566e-06 0.0
3.86721 3.21082e-06 0.0
3.9127 2.94049e-06 0.0
4.0037 2.38133e-06 0.0
4.04919 2.08921e-06 0.0
4.14019 1.49695e-06 0.0
4.18568 1.19458e-06 0.0
4.27668 5.82068e-07 0.0
4.32218 2.69743e-07 0.0
4.41317 -3.48657e-07 0.0
4.45867 -6.58565e-07 0.0
4.54966 -1.27377e-06 0.0
4.59516 -1.58105e-06 0.0
4.68615 -2.17915e-06 0.0
4.73165 -2.47381e-06 0.0
4.82264 -3.04798e-06 0.0
4.86814 -3.33024e-06 0.0
4.95914 -3.86944e-06 0.0
5.00463 -4.13056e-06 0.0
5.09563 -4.62885e-06 0.0
5.14113 -4.87008e-06 0.0
5.23212 -5.3258e-06 0.0
5.27762 -5.54363e-06 0.0
5.36861 -5.95257e-06 0.0
5.41411 -6.15019e-06 0.0
5.50511 -6.52647e-06 0.0
5.5506 -6.7114e-06 0.0
5.6416 -7.07235e-06 0.0
5.6871 -7.25743e-06 0.0
5.77809 -7.65291e-06 0.0
5.82359 -7.87327e-06 0.0
5.91458 -8.85254e-06 0.0
5.96008 -9.06832e-06 0.0
6.00559 0.0749917 0.0
6.00559 0.149992 0.0
6.00559 0.224991 0.0
6.00558 0.0249963 0.0
6.00558 0.0499934 0.0
6.00558 0.0999926 0.0
6.00558 0.124991 0.0
6.00558 0.174993 0.0
6.00558 0.19999 0.0
6.00558 0.24999 0.0
6.00558 0.274987 0.0
5.86909 0.299992 0.0
5.73259 0.299993 0.0
5.5961 0.299993 0.0
5.45961 0.299994 0.0
5.32312 0.299994 0.0
5.18663 0.299995 0.0
5.05013 0.299996 0.0
4.91364 0.299996 0.0
4.77715 0.299997 0.0
4.64066 0.299998 0.0
4.50417 0.299999 0.0
4.36767 0.3 0.0
4.23118 0.300001 0.0
4.09469 0.300002 0.0
3.9582 0.300003 0.0
3.82171 0.300003 0.0
3.68522 0.300004 0.0
3.54873 0.300005 0.0
3.41224 0.300005 0.0
3.27575 0.300006 0.0
3.13926 0.300006 0.0
3.00277 0.300006 0.0
2.86628 0.300006 0.0
2.72979 0.300006 0.0
2.5933 0.300006 0.0
2.45681 0.300005 0.0
2.32032 0.300005 0.0
2.18383 0.300005 0.0
2.04734 0.300004 0.0
1.91085 0.300004 0.0
1.77436 0.300003 0.0
1.63787 0.300003 0.0
1.50138 0.300002 0.0
1.36489 0.300002 0.0
1.2284 0.300001 0.0
1.09191 0.300001 0.0
0.955423 0.300001 0.0
0.818934 0.3 0.0
0.682445 0.3 0.0
0.545956 0.3 0.0
0.409467 0.3 0.0
0.272978 0.3 0.0
0.136489 0.3 0.0
5.96009 0.299993 0.0
5.91459 0.299993 0.0
5.82359 0.299992 0.0
5.77809 0.299993 0.0
5.6871 0.299993 0.0
5.6416 0.299993 0.0
5.5506 0.299993 0.0
5.50511 0.299993 0.0
5.41411 0.299994 0.0
5.36861 0.299994 0.0
5.27762 0.299994 0.0
5.23212 0.299995 0.0
5.14113 0.299995 0.0
5.09563 0.299995 0.0
5.00464 0.299996 0.0
4.95914 0.299996 0.0
4.86814 0.299997 0.0
4.82265 0.299997 0.0
4.73165 0.299998 0.0
4.68615 0.299998 0.0
4.59516 0.299998 0.0
4.54966 0.299999 0.0
4.45867 0.299999 0.0
4.41317 0.3 0.0
4.32218 0.3 0.0
4.27668 0.300001 0.0
4.18569 0.300001 0.0
4.14019 0.300001 0.0
4.0492 0.300002 0.0
4.0037 0.300002 0.0
3.9127 0.300003 0.0
3.86721 0.300003 0.0
3.77621 0.300004 0.0
3.73072 0.300004 0.0
3.63972 0.300004 0.0
3.59423 0.300005 0.0
3.50323 0.300005 0.0
3.45773 0.300005 0.0
3.36674 0.300006 0.0
3.32124 0.300006 0.0
3.23025 0.300006 0.0
3.18475 0.300006 0.0
3.09376 0.300006 0.0
3.04826 0.300006 0.0
2.95727 0.300006 0.0
2.91177 0.300006 0.0
2.82078 0.300006 0.0
2.77528 0.300006 0.0
2.68429 0.300006 0.0
2.63879 0.300006 0.0
2.5478 0.300006 0.0
2.5023 0.300006 0.0
2.41131 0.300005 0.0
2.36581 0.300005 0.0
2.27482 0.300005 0.0
2.22932 0.300005 0.0
2.13833 0.300004 0.0
2.09283 0.300004 0.0
2.00184 0.300004 0.0
1.95634 0.300004 0.0
1.86535 0.300003 0.0
1.81985 0.300003 0.0
1.72886 0.300003 0.0
1.68336 0.300003 0.0
1.59237 0.300002 0.0
1.54688 0.300002 0.0
1.45588 0.300002 0.0
1.41039 0.300002 0.0
1.31939 0.300002 0.0
1.2739 0.300001 0.0
1.1829 0.300001 0.0
1.13741 0.300001 0.0
1.04642 0.300001 0.0
1.00092 0.300001 0.0
0.909926 0.300001 0.0
0.86443 0.300001 0.0
0.773437 0.3 0.0
0.727941 0.3 0.0
0.636948 0.3 0.0
0.591452 0.3 0.0
0.500459 0.3 0.0
0.454963 0.3 0.0
0.363971 0.3 0.0
0.318474 0.3 0.0
0.227482 0.3 0.0
0.181985 0.3 0.0
0.0909926 0.3 0.0
0.0454963 0.3 0.0
0 0.225 0.0
0 0.15 0.0
0 0.075 0.0
0 0.275 0.0
0 0.25 0.0
0 0.2 0.0
0 0.175 0.0
0 0.125 0.0
0 0.1 0.0
0 0.05 0.0
0 0.025 0.0
5.85476 0.149992 0.0
0.15082 0.15 0.0
0.344584 0.152387 0.0
5.66652 0.150365 0.0
0.6142 0.161313 0.0
5.25356 0.149024 0.0
0.887178 0.161314 0.0
1.16016 0.161314 0.0
4.98189 0.138683 0.0
1.43314 0.161315 0.0
1.70611 0.161316 0.0
3.88995 0.13869 0.0
1.97909 0.161317 0.0
4.16294 0.138688 0.0
4.7089 0.138685 0.0
4.43592 0.138686 0.0
3.61697 0.138691 0.0
2.25207 0.161318 0.0
3.34399 0.138693 0.0
2.52505 0.161319 0.0
2.79803 0.161319 0.0
3.07101 0.150006 0.0
5.50717 0.155402 0.0
2.93452 0.107022 0.0
5.11812 0.192786 0.0
0.478384 0.107493 0.0
1.02367 0.109279 0.0
0.75069 0.109279 0.0
4.84539 0.190719 0.0
1.29665 0.10928 0.0
4.29943 0.190722 0.0
4.02645 0.190724 0.0
1.56962 0.109281 0.0
4.57241 0.19072 0.0
1.8426 0.109282 0.0
2.11558 0.109283 0.0
3.75346 0.190726 0.0
2.38856 0.109283 0.0
3.48048 0.190727 0.0
2.66154 0.109284 0.0
3.2075 0.19299 0.0
5.38696 0.105032 0.0
5.93862 0.102925 0.0
5.94653 0.204648 0.0
0.0669558 0.197066 0.0
0.0590442 0.0953444 0.0
0.239607 0.102235 0.0
5.76442 0.102266 0.0
5.38759 0.207277 0.0
3.2075 0.0905977 0.0
2.66154 0.214901 0.0
3.48048 0.0851098 0.0
5.11815 0.0904206 0.0
2.38856 0.214901 0.0
2.11558 0.2149 0.0
3.75346 0.0851085 0.0
1.8426 0.214899 0.0
1.56962 0.214898 0.0
0.750689 0.214896 0.0
1.02367 0.214896 0.0
1.29665 0.214897 0.0
4.02645 0.0851069 0.0
0.478123 0.213802 0.0
4.84539 0.0851015 0.0
4.29943 0.0851051 0.0
4.57241 0.0851032 0.0
2.93452 0.209414 0.0
5.77167 0.202986 0.0
0.234195 0.203137 0.0
5.64305 0.200241 0.0
5.61958 0.250117 0.0
5.56646 0.251796 0.0
5.53682 0.203599 0.0
5.56029 0.153723 0.0
5.61341 0.152044 0.0
5.58993 0.20192 0.0
5.61957 0.050117 0.0
5.64305 0.100241 0.0
5.53682 0.103599 0.0
5.56646 0.0517961 0.0
5.58993 0.10192 0.0
5.47546 0.251796 0.0
5.49132 0.203599 0.0
5.52096 0.251796 0.0
5.49132 0.103599 0.0
5.47546 0.0517965 0.0
5.52096 0.0517963 0.0
3.11651 0.0500061 0.0
3.09376 0.100006 0.0
3.04826 0.100006 0.0
3.02551 0.0500062 0.0
3.07101 0.0500061 0.0
2.75253 0.253777 0.0
2.77528 0.207548 0.0
2.82078 0.207548 0.0
2.84353 0.253777 0.0
2.79803 0.253777 0.0
2.47955 0.253777 0.0
2.5023 0.207548 0.0
2.5478 0.207548 0.0
2.57055 0.253777 0.0
2.52505 0.253777 0.0
3.38949 0.0462344 0.0
3.36674 0.0924635 0.0
3.32124 0.0924636 0.0
3.29849 0.0462347 0.0
3.34399 0.0462346 0.0
2.20657 0.253776 0.0
2.22932 0.207547 0.0
2.27482 0.207547 0.0
2.29757 0.253776 0.0
2.25207 0.253776 0.0
3.66247 0.0462333 0.0
3.63972 0.0924624 0.0
3.59422 0.0924626 0.0
3.57148 0.0462337 0.0
3.61697 0.0462335 0.0
1.9336 0.253775 0.0
1.95634 0.207546 0.0
2.00184 0.207546 0.0
2.02459 0.253775 0.0
1.97909 0.253775 0.0
3.93545 0.0462318 0.0
3.9127 0.0924609 0.0
3.86721 0.0924612 0.0
3.84446 0.0462323 0.0
3.88995 0.0462321 0.0
1.66062 0.253774 0.0
1.68337 0.207545 0.0
1.72886 0.207545 0.0
1.75161 0.253774 0.0
1.70611 0.253774 0.0
4.20843 0.04623 0.0
4.18568 0.0924592 0.0
4.14019 0.0924595 0.0
4.11744 0.0462306 0.0
4.16294 0.0462303 0.0
1.38764 0.253773 0.0
1.41039 0.207544 0.0
1.45588 0.207544 0.0
1.47863 0.253773 0.0
1.43313 0.253773 0.0
4.48142 0.0462282 0.0
4.45867 0.0924573 0.0
4.41317 0.0924576 0.0
4.39042 0.0462288 0.0
4.43592 0.0462285 0.0
4.7544 0.0462264 0.0
4.73165 0.0924555 0.0
4.68615 0.0924558 0.0
4.6634 0.0462269 0.0
4.7089 0.0462267 0.0
5.02738 0.0462247 0.0
5.00463 0.0924538 0.0
4.95914 0.0924541 0.0
4.93639 0.0462252 0.0
4.98189 0.046225 0.0
1.11466 0.253772 0.0
1.13741 0.207543 0.0
1.1829 0.207543 0.0
1.20565 0.253772 0.0
1.16016 0.253772 0.0
5.29993 0.0496709 0.0
5.27675 0.0993475 0.0
5.23125 0.0993477 0.0
5.20894 0.0496713 0.0
5.25443 0.0496711 0.0
0.841682 0.253772 0.0
0.86443 0.207543 0.0
0.909927 0.207543 0.0
0.932675 0.253772 0.0
0.887178 0.253772 0.0
0.387839 0.0507957 0.0
0.366211 0.101591 0.0
0.320715 0.101591 0.0
0.296847 0.0507956 0.0
0.342343 0.0507957 0.0
5.71057 0.0501166 0.0
5.68855 0.100241 0.0
5.66507 0.0501168 0.0
0.568704 0.253771 0.0
0.591452 0.207542 0.0
0.636949 0.207542 0.0
0.659697 0.253771 0.0
0.6142 0.253771 0.0
5.68855 0.200241 0.0
5.71057 0.250117 0.0
5.66507 0.250117 0.0
5.20894 0.249671 0.0
5.23125 0.199348 0.0
5.27675 0.199347 0.0
5.29993 0.249671 0.0
5.25443 0.249671 0.0
0.659697 0.0537713 0.0
0.636949 0.107542 0.0
0.591452 0.107542 0.0
0.568704 0.0537712 0.0
0.614201 0.0537712 0.0
0.932675 0.0537717 0.0
0.909927 0.107543 0.0
0.86443 0.107543 0.0
0.841682 0.0537715 0.0
0.887179 0.0537716 0.0
0.296847 0.250796 0.0
0.320715 0.201591 0.0
0.366211 0.201591 0.0
0.387839 0.250796 0.0
0.342343 0.250796 0.0
4.93639 0.246225 0.0
4.95914 0.192454 0.0
5.00464 0.192454 0.0
5.02738 0.246225 0.0
4.98189 0.246225 0.0
1.20565 0.0537723 0.0
1.18291 0.107543 0.0
1.13741 0.107543 0.0
1.11466 0.0537721 0.0
1.16016 0.0537722 0.0
1.47863 0.0537731 0.0
1.45588 0.107544 0.0
1.41039 0.107544 0.0
1.38764 0.0537728 0.0
1.43314 0.0537729 0.0
1.75161 0.053774 0.0
1.72886 0.107545 0.0
1.68337 0.107545 0.0
1.66062 0.0537737 0.0
1.70611 0.0537739 0.0
3.84446 0.246232 0.0
3.86721 0.192461 0.0
3.9127 0.192461 0.0
3.93545 0.246232 0.0
3.88996 0.246232 0.0
2.02459 0.0537751 0.0
2.00184 0.107546 0.0
1.95634 0.107546 0.0
1.9336 0.0537747 0.0
1.97909 0.0537749 0.0
4.11744 0.246231 0.0
4.14019 0.192459 0.0
4.18569 0.192459 0.0
4.20843 0.24623 0.0
4.16294 0.24623 0.0
3.57148 0.246234 0.0
3.59422 0.192463 0.0
3.63972 0.192462 0.0
3.66247 0.246233 0.0
3.61697 0.246234 0.0
4.66341 0.246227 0.0
4.68615 0.192456 0.0
4.73165 0.192455 0.0
4.7544 0.246226 0.0
4.7089 0.246227 0.0
4.39042 0.246229 0.0
4.41317 0.192458 0.0
4.45867 0.192457 0.0
4.48142 0.246228 0.0
4.43592 0.246228 0.0
2.29757 0.053776 0.0
2.27482 0.107547 0.0
2.22932 0.107547 0.0
2.20658 0.0537757 0.0
2.25207 0.0537759 0.0
3.2985 0.246235 0.0
3.32124 0.192464 0.0
3.36674 0.192463 0.0
3.38949 0.246234 0.0
3.34399 0.246235 0.0
2.57055 0.0537768 0.0
2.5478 0.107548 0.0
2.5023 0.107548 0.0
2.47955 0.0537766 0.0
2.52505 0.0537767 0.0
2.84353 0.0537772 0.0
2.82078 0.107548 0.0
2.77528 0.107548 0.0
2.75253 0.0537771 0.0
2.79803 0.0537771 0.0
3.02551 0.250006 0.0
3.04826 0.200006 0.0
3.09376 0.200006 0.0
3.11651 0.250006 0.0
3.07101 0.250006 0.0
3.02551 0.135678 0.0
2.98002 0.12135 0.0
2.95727 0.0713499 0.0
2.98002 0.035678 0.0
3.00277 0.085678 0.0
2.88902 0.035678 0.0
2.91177 0.0713499 0.0
2.88902 0.125121 0.0
2.84353 0.14322 0.0
2.86628 0.089449 0.0
0.432439 0.0358311 0.0
0.455411 0.071662 0.0
0.433784 0.122458 0.0
0.389184 0.137422 0.0
0.410811 0.0866267 0.0
5.16379 0.264258 0.0
5.14095 0.228522 0.0
5.16327 0.178198 0.0
5.20841 0.163611 0.0
5.1861 0.213935 0.0
0.568928 0.143373 0.0
0.523656 0.125433 0.0
0.500908 0.0716621 0.0
0.523432 0.0358311 0.0
0.54618 0.0896021 0.0
0.705193 0.0364264 0.0
0.727941 0.0728524 0.0
0.705193 0.126623 0.0
0.659697 0.143968 0.0
0.682445 0.0901974 0.0
0.841682 0.143969 0.0
0.796186 0.126624 0.0
0.773438 0.0728525 0.0
0.796186 0.0364265 0.0
0.818934 0.0901975 0.0
0.978171 0.0364268 0.0
1.00092 0.0728529 0.0
0.978171 0.126624 0.0
0.932675 0.143969 0.0
0.955423 0.0901978 0.0
5.0273 0.156717 0.0
5.07271 0.174751 0.0
5.09546 0.228522 0.0
5.07279 0.264259 0.0
5.05005 0.210488 0.0
1.11466 0.143969 0.0
1.06916 0.126624 0.0
1.04642 0.072853 0.0
1.06916 0.036427 0.0
1.09191 0.0901981 0.0
1.25115 0.0364274 0.0
1.2739 0.0728535 0.0
1.25115 0.126625 0.0
1.20565 0.143969 0.0
1.2284 0.0901984 0.0
1.38764 0.14397 0.0
1.34214 0.126625 0.0
1.31939 0.0728537 0.0
1.34214 0.0364277 0.0
1.36489 0.0901988 0.0
1.52413 0.0364283 0.0
1.54688 0.0728544 0.0
1.52413 0.126625 0.0
1.47863 0.14397 0.0
1.50138 0.0901992 0.0
4.89089 0.26357 0.0
4.86814 0.227145 0.0
4.89089 0.173373 0.0
4.93639 0.156028 0.0
4.91364 0.209799 0.0
1.66062 0.143971 0.0
1.61512 0.126626 0.0
1.59237 0.0728546 0.0
1.61512 0.0364286 0.0
1.63787 0.0901997 0.0
1.79711 0.0364292 0.0
1.81986 0.0728554 0.0
1.79711 0.126626 0.0
1.75161 0.143971 0.0
1.77436 0.0902002 0.0
3.93545 0.156035 0.0
3.98095 0.173379 0.0
4.0037 0.22715 0.0
3.98095 0.263576 0.0
3.9582 0.209806 0.0
4.07194 0.263576 0.0
4.04919 0.22715 0.0
4.07194 0.173379 0.0
4.11744 0.156034 0.0
4.09469 0.209805 0.0
3.79896 0.263578 0.0
3.77621 0.227152 0.0
3.79896 0.17338 0.0
3.84446 0.156035 0.0
3.82171 0.209806 0.0
4.20843 0.156033 0.0
4.25393 0.173378 0.0
4.27668 0.227148 0.0
4.25393 0.263575 0.0
4.23118 0.209804 0.0
4.7544 0.156029 0.0
4.7999 0.173374 0.0
4.82265 0.227145 0.0
4.7999 0.263571 0.0
4.77715 0.2098 0.0
4.34493 0.263574 0.0
4.32218 0.227148 0.0
4.34493 0.173377 0.0
4.39042 0.156032 0.0
4.36767 0.209803 0.0
4.61791 0.263572 0.0
4.59516 0.227146 0.0
4.61791 0.173375 0.0
4.66341 0.15603 0.0
4.64066 0.209801 0.0
1.9336 0.143972 0.0
1.8881 0.126627 0.0
1.86535 0.0728555 0.0
1.8881 0.0364296 0.0
1.91085 0.0902007 0.0
2.07009 0.0364303 0.0
2.09283 0.0728564 0.0
2.07009 0.126627 0.0
2.02459 0.143972 0.0
2.04734 0.0902012 0.0
4.48142 0.156031 0.0
4.52691 0.173376 0.0
4.54966 0.227147 0.0
4.52691 0.263573 0.0
4.50417 0.209802 0.0
3.66247 0.156036 0.0
3.70797 0.173381 0.0
3.73072 0.227152 0.0
3.70797 0.263578 0.0
3.68522 0.209807 0.0
3.52598 0.263579 0.0
3.50323 0.227153 0.0
3.52598 0.173382 0.0
3.57148 0.156037 0.0
3.54873 0.209808 0.0
2.20658 0.143973 0.0
2.16108 0.126628 0.0
2.13833 0.0728566 0.0
2.16108 0.0364306 0.0
2.18383 0.0902017 0.0
2.34307 0.0364312 0.0
2.36581 0.0728573 0.0
2.34306 0.126628 0.0
2.29757 0.143973 0.0
2.32032 0.0902021 0.0
2.47955 0.143974 0.0
2.43406 0.126629 0.0
2.41131 0.0728574 0.0
2.43406 0.0364315 0.0
2.45681 0.0902025 0.0
2.61604 0.0364319 0.0
2.63879 0.072858 0.0
2.61604 0.126629 0.0
2.57055 0.143974 0.0
2.5933 0.0902029 0.0
3.38949 0.156037 0.0
3.43499 0.173382 0.0
3.45773 0.227153 0.0
3.43499 0.263579 0.0
3.41224 0.209808 0.0
3.253 0.264334 0.0
3.23025 0.228662 0.0
3.253 0.174891 0.0
3.2985 0.156792 0.0
3.27575 0.210563 0.0
2.75253 0.143974 0.0
2.70704 0.126629 0.0
2.68429 0.0728581 0.0
2.70704 0.0364321 0.0
2.72979 0.0902031 0.0
3.11651 0.164334 0.0
3.162 0.178662 0.0
3.18475 0.228662 0.0
3.162 0.264334 0.0
3.13926 0.214334 0.0
2.84353 0.177351 0.0
2.88902 0.193383 0.0
2.91177 0.239612 0.0
2.88902 0.269809 0.0
2.86628 0.22358 0.0
3.2985 0.122661 0.0
3.253 0.106629 0.0
3.23025 0.0604004 0.0
3.253 0.0302031 0.0
3.27575 0.076432 0.0
2.57055 0.17918 0.0
2.61604 0.19704 0.0
2.63879 0.243269 0.0
2.61604 0.271638 0.0
2.5933 0.225409 0.0
2.29757 0.179179 0.0
2.34306 0.19704 0.0
2.36581 0.243269 0.0
2.34306 0.271637 0.0
2.32032 0.225408 0.0
3.57148 0.120831 0.0
3.52598 0.10297 0.0
3.50323 0.0567415 0.0
3.52598 0.0283732 0.0
3.54873 0.074602 0.0
2.02459 0.179178 0.0
2.07009 0.197039 0.0
2.09283 0.243268 0.0
2.07009 0.271636 0.0
2.04734 0.225407 0.0
3.84446 0.12083 0.0
3.79896 0.102969 0.0
3.77621 0.0567402 0.0
3.79896 0.0283718 0.0
3.82171 0.0746007 0.0
1.75161 0.179177 0.0
1.79711 0.197038 0.0
1.81985 0.243267 0.0
1.79711 0.271635 0.0
1.77436 0.225406 0.0
4.11744 0.120828 0.0
4.07194 0.102967 0.0
4.04919 0.0567385 0.0
4.07194 0.0283702 0.0
4.09469 0.074599 0.0
4.39042 0.120826 0.0
4.34492 0.102966 0.0
4.32218 0.0567367 0.0
4.34492 0.0283683 0.0
4.36767 0.0745972 0.0
4.66341 0.120824 0.0
4.61791 0.102964 0.0
4.59516 0.0567348 0.0
4.61791 0.0283665 0.0
4.64066 0.0745953 0.0
1.47863 0.179176 0.0
1.52413 0.197037 0.0
1.54688 0.243266 0.0
1.52413 0.271634 0.0
1.50138 0.225405 0.0
4.93639 0.120822 0.0
4.89089 0.102962 0.0
4.86814 0.0567331 0.0
4.89089 0.0283647 0.0
4.91364 0.0745936 0.0
1.20565 0.179175 0.0
1.25115 0.197036 0.0
1.2739 0.243265 0.0
1.25115 0.271633 0.0
1.2284 0.225404 0.0
5.20843 0.12949 0.0
5.16329 0.109955 0.0
5.14098 0.0602787 0.0
5.1638 0.0301368 0.0
5.18611 0.0798132 0.0
0.932675 0.179174 0.0
0.978171 0.197035 0.0
1.00092 0.243264 0.0
0.978171 0.271633 0.0
0.955423 0.225404 0.0
0.659697 0.179174 0.0
0.705193 0.197035 0.0
0.727941 0.243264 0.0
0.705193 0.271632 0.0
0.682445 0.225403 0.0
0.389097 0.172859 0.0
0.43361 0.193331 0.0
0.455238 0.242535 0.0
0.432352 0.271268 0.0
0.410725 0.222063 0.0
0.523345 0.271268 0.0
0.500734 0.242535 0.0
0.523482 0.196306 0.0
0.568841 0.17881 0.0
0.546093 0.225039 0.0
0.796186 0.271632 0.0
0.773437 0.243264 0.0
0.796186 0.197035 0.0
0.841682 0.179174 0.0
0.818934 0.225403 0.0
2.98002 0.269809 0.0
2.95727 0.239612 0.0
2.98002 0.189612 0.0
3.02551 0.169809 0.0
3.00277 0.219809 0.0
1.06916 0.271633 0.0
1.04642 0.243264 0.0
1.06916 0.197036 0.0
1.11466 0.179175 0.0
1.09191 0.225404 0.0
1.34214 0.271633 0.0
1.31939 0.243265 0.0
1.34214 0.197036 0.0
1.38764 0.179176 0.0
1.36489 0.225405 0.0
5.07281 0.0301373 0.0
5.09548 0.0602789 0.0
5.07273 0.106508 0.0
5.02731 0.122595 0.0
5.05006 0.0763664 0.0
4.7999 0.0283653 0.0
4.82265 0.0567334 0.0
4.7999 0.102963 0.0
4.7544 0.120824 0.0
4.77715 0.0745944 0.0
1.61512 0.271634 0.0
1.59237 0.243266 0.0
1.61512 0.197037 0.0
1.66062 0.179177 0.0
1.63787 0.225405 0.0
4.52691 0.0283671 0.0
4.54966 0.0567352 0.0
4.52691 0.102964 0.0
4.48142 0.120825 0.0
4.50416 0.0745962 0.0
4.25393 0.028369 0.0
4.27668 0.056737 0.0
4.25393 0.102966 0.0
4.20843 0.120827 0.0
4.23118 0.0745981 0.0
3.98095 0.0283707 0.0
4.0037 0.0567388 0.0
3.98095 0.102968 0.0
3.93545 0.120829 0.0
3.9582 0.0745999 0.0
1.8881 0.271635 0.0
1.86535 0.243267 0.0
1.8881 0.197038 0.0
1.9336 0.179178 0.0
1.91085 0.225406 0.0
3.70797 0.0283723 0.0
3.73071 0.0567404 0.0
3.70797 0.102969 0.0
3.66247 0.12083 0.0
3.68522 0.0746014 0.0
2.16108 0.271636 0.0
2.13833 0.243268 0.0
2.16108 0.197039 0.0
2.20658 0.179179 0.0
2.18383 0.225407 0.0
2.43406 0.271637 0.0
2.41131 0.243269 0.0
2.43406 0.19704 0.0
2.47955 0.179179 0.0
2.45681 0.225408 0.0
3.43499 0.0283735 0.0
3.45773 0.0567416 0.0
3.43499 0.102971 0.0
3.38949 0.120832 0.0
3.41224 0.0746026 0.0
2.70704 0.271638 0.0
2.68429 0.24327 0.0
2.70704 0.197041 0.0
2.75253 0.17918 0.0
2.72979 0.225409 0.0
3.162 0.0302033 0.0
3.18475 0.0604005 0.0
3.162 0.110401 0.0
3.11651 0.130203 0.0
3.13926 0.0802033 0.0
5.29824 0.168442 0.0