# vtk DataFile Version 2.0
FEM, Created by Wutzow
ASCII
DATASET UNSTRUCTURED_GRID
POINTS 2695 Float64
0 0 0
0.0662906 -8.39151e-05 0
0.0700482 1.99635 0
0.00348954 1.99874 0
0.0221 0 0
0.0442 0 0
0.00736667 0 0
0.0147337 -9.60299e-06 0
0.0294655 -3.04928e-05 0
0.0368405 -3.35353e-05 0
0.0515551 -4.79836e-05 0
0.0589215 -7.00805e-05 0
0.0663283 0.0262313 0
0.0663471 0.0525328 0
0.0663612 0.0788309 0
0.0663708 0.105128 0
0.0663763 0.131424 0
0.0663783 0.15772 0
0.0663775 0.184014 0
0.0663745 0.210308 0
0.0663698 0.236601 0
0.0663639 0.262894 0
0.0663571 0.289186 0
0.0663497 0.315478 0
0.0663422 0.341769 0
0.0663347 0.36806 0
0.0663274 0.394351 0
0.0663205 0.420641 0
0.0663142 0.446931 0
0.0663084 0.473221 0
0.0663034 0.499511 0
0.0662992 0.5258 0
0.0662958 0.55209 0
0.0662932 0.578379 0
0.0662915 0.604668 0
0.0662907 0.630957 0
0.0662909 0.657246 0
0.066292 0.683535 0
0.0662941 0.709824 0
0.0662971 0.736112 0
0.0663011 0.762401 0
0.066306 0.788689 0
0.0663118 0.814977 0
0.0663183 0.841266 0
0.0663254 0.867554 0
0.066333 0.893843 0
0.0663408 0.920132 0
0.0663485 0.946421 0
0.0663557 0.97271 0
0.0663621 0.999 0
0.0663672 1.02529 0
0.0663704 1.05158 0
0.0663712 1.07787 0
0.066369 1.10416 0
0.0663631 1.13046 0
0.0663528 1.15675 0
0.0663377 1.18304 0
0.0663169 1.20934 0
0.0662902 1.23563 0
0.066257 1.26193 0
0.0662171 1.28822 0
0.0661702 1.31452 0
0.0661166 1.34081 0
0.0660566 1.36711 0
0.065991 1.3934 0
0.0659206 1.41969 0
0.0658465 1.44598 0
0.0657706 1.47226 0
0.065695 1.49855 0
0.0656221 1.52482 0
0.0655551 1.5511 0
0.0654973 1.57737 0
0.0654526 1.60363 0
0.0654252 1.62989 0
0.0654199 1.65615 0
0.0654414 1.68239 0
0.0654951 1.70863 0
0.0655863 1.73487 0
0.0657207 1.76109 0
0.0659039 1.78731 0
0.0661418 1.81352 0
0.0664402 1.83972 0
0.0668049 1.86591 0
0.0672411 1.89209 0
0.0677535 1.91827 0
0.0683433 1.94444 0
0.0690122 1.97058 0
0.0663067 0.00868878 0
0.0663194 0.0174609 0
0.0663352 0.0349994 0
0.0663414 0.0437664 0
0.0663523 0.061299 0
0.066357 0.070065 0
0.0663649 0.0875967 0
0.0663681 0.0963625 0
0.066373 0.113894 0
0.0663749 0.122659 0
0.0663773 0.14019 0
0.066378 0.148955 0
0.0663784 0.166485 0
0.0663781 0.17525 0
0.0663768 0.192779 0
0.0663758 0.201544 0
0.0663731 0.219073 0
0.0663716 0.227837 0
0.066368 0.245366 0
0.066366 0.25413 0
0.0663617 0.271658 0
0.0663594 0.280422 0
0.0663547 0.29795 0
0.0663522 0.306714 0
0.0663472 0.324242 0
0.0663447 0.333005 0
0.0663397 0.350533 0
0.0663372 0.359296 0
0.0663322 0.376824 0
0.0663298 0.385587 0
0.066325 0.403114 0
0.0663228 0.411878 0
0.0663183 0.429404 0
0.0663162 0.438168 0
0.0663122 0.455694 0
0.0663103 0.464458 0
0.0663067 0.481984 0
0.066305 0.490748 0
0.0663019 0.508274 0
0.0663005 0.517037 0
0.0662979 0.534564 0
0.0662968 0.543327 0
0.0662948 0.560853 0
0.0662939 0.569616 0
0.0662925 0.587142 0
0.066292 0.595905 0
0.0662911 0.613431 0
0.0662909 0.622194 0
0.0662907 0.63972 0
0.0662907 0.648483 0
0.0662911 0.666009 0
0.0662915 0.674772 0
0.0662926 0.692298 0
0.0662933 0.701061 0
0.066295 0.718587 0
0.066296 0.727349 0
0.0662983 0.744875 0
0.0662997 0.753638 0
0.0663026 0.771164 0
0.0663043 0.779926 0
0.0663078 0.797452 0
0.0663097 0.806215 0
0.0663139 0.82374 0
0.066316 0.832503 0
0.0663206 0.850029 0
0.066323 0.858791 0
0.0663279 0.876317 0
0.0663305 0.88508 0
0.0663356 0.902606 0
0.0663382 0.911369 0
0.0663434 0.928895 0
0.0663459 0.937658 0
0.066351 0.955184 0
0.0663534 0.963947 0
0.066358 0.981473 0
0.0663601 0.990237 0
0.066364 1.00776 0
0.0663657 1.01653 0
0.0663685 1.03405 0
0.0663696 1.04282 0
0.066371 1.06034 0
0.0663712 1.06911 0
0.0663708 1.08664 0
0.0663701 1.0954 0
0.0663674 1.11293 0
0.0663655 1.12169 0
0.0663602 1.13922 0
0.0663568 1.14799 0
0.0663483 1.16551 0
0.0663433 1.17428 0
0.0663314 1.19181 0
0.0663245 1.20057 0
0.0663087 1.2181 0
0.0662998 1.22687 0
0.0662798 1.2444 0
0.0662688 1.25316 0
0.0662445 1.27069 0
0.0662312 1.27946 0
0.0662022 1.29699 0
0.0661866 1.30575 0
0.0661531 1.32328 0
0.0661353 1.33205 0
0.0660973 1.34958 0
0.0660773 1.35834 0
0.0660354 1.37587 0
0.0660135 1.38463 0
0.065968 1.40216 0
0.0659445 1.41092 0
0.0658962 1.42845 0
0.0658715 1.43721 0
0.0658214 1.45474 0
0.065796 1.4635 0
0.0657453 1.48102 0
0.06572 1.48978 0
0.0656703 1.50731 0
0.065646 1.51607 0
0.065599 1.53358 0
0.0655766 1.54234 0
0.0655346 1.55986 0
0.0655153 1.56861 0
0.0654807 1.58613 0
0.0654658 1.59488 0
0.0654413 1.61239 0
0.0654321 1.62114 0
0.0654207 1.63865 0
0.0654189 1.6474 0
0.0654238 1.6649 0
0.0654309 1.67365 0
0.0654555 1.69114 0
0.0654733 1.69989 0
0.0655211 1.71738 0
0.0655514 1.72612 0
0.065626 1.74361 0
0.0656707 1.75235 0
0.065776 1.76983 0
0.065837 1.77857 0
0.0659768 1.79604 0
0.0660561 1.80478 0
0.0662343 1.82225 0
0.0663337 1.83098 0
0.0665541 1.84845 0
0.0666756 1.85718 0
0.0669421 1.87464 0
0.0670874 1.88337 0
0.0674033 1.90082 0
0.067574 1.90955 0
0.0679415 1.927 0
0.0681382 1.93572 0
0.0685565 1.95316 0
0.0687783 1.96188 0
0.0692452 1.97928 0
0.0695289 1.98788 0
0.047742 1.99753 0
0.0255891 1.99815 0
0.0626305 1.99697 0
0.0551677 1.9973 0
0.0403498 1.99774 0
0.0329655 1.99795 0
0.0182191 1.99834 0
0.0108532 1.99854 0
0.00276437 1.97242 0
0.00207395 1.94606 0
0.00147028 1.91968 0
0.000952418 1.89331 0
0.000512997 1.86693 0
0.000145891 1.84057 0
-0.000154411 1.81421 0
-0.000393705 1.78785 0
-0.000577926 1.7615 0
-0.000712937 1.73516 0
-0.000804566 1.70883 0
-0.00085846 1.6825 0
-0.000880113 1.65618 0
-0.000874756 1.62986 0
-0.000847378 1.60355 0
-0.000802611 1.57725 0
-0.000744748 1.55095 0
-0.000677651 1.52466 0
-0.000604776 1.49836 0
-0.00052911 1.47208 0
-0.000453209 1.44579 0
-0.000379195 1.41951 0
-0.00030876 1.39323 0
-0.000243174 1.36695 0
-0.000183199 1.34067 0
-0.000129636 1.31439 0
-8.28441e-05 1.28811 0
-4.29331e-05 1.26184 0
-9.78523e-06 1.23556 0
1.69638e-05 1.20928 0
3.76661e-05 1.183 0
5.28397e-05 1.15672 0
6.30653e-05 1.13044 0
6.89737e-05 1.10415 0
7.12043e-05 1.07787 0
7.04015e-05 1.05158 0
6.71739e-05 1.0253 0
6.21034e-05 0.999013 0
5.57069e-05 0.972726 0
4.84657e-05 0.946439 0
4.07892e-05 0.92015 0
3.30278e-05 0.893862 0
2.54376e-05 0.867572 0
1.82832e-05 0.841283 0
1.17573e-05 0.814993 0
5.99579e-06 0.788702 0
1.09674e-06 0.762412 0
-2.89749e-06 0.736121 0
-5.93656e-06 0.70983 0
-8.00921e-06 0.683539 0
-9.12322e-06 0.657248 0
-9.28444e-06 0.630957 0
-8.50936e-06 0.604665 0
-6.82199e-06 0.578374 0
-4.24561e-06 0.552082 0
-8.16562e-07 0.525791 0
3.42978e-06 0.499499 0
8.44251e-06 0.473208 0
1.41637e-05 0.446916 0
2.05128e-05 0.420625 0
2.73915e-05 0.394333 0
3.46689e-05 0.368042 0
4.21843e-05 0.341751 0
4.97357e-05 0.31546 0
5.7075e-05 0.289169 0
6.38781e-05 0.262879 0
6.98311e-05 0.236589 0
7.45422e-05 0.2103 0
7.75464e-05 0.184011 0
7.83229e-05 0.157723 0
7.62857e-05 0.131435 0
7.07872e-05 0.105149 0
6.10739e-05 0.0788631 0
4.61537e-05 0.0525784 0
2.50361e-05 0.0262935 0
0.00324971 1.98997 0
0.00300709 1.9812 0
0.00252598 1.96364 0
0.00229528 1.95485 0
0.00186279 1.93727 0
0.00166162 1.92848 0
0.00128851 1.91089 0
0.00111597 1.9021 0
0.000797558 1.88451 0
0.00065115 1.87572 0
0.000382861 1.85814 0
0.000260559 1.84936 0
3.86482e-05 1.83178 0
-6.13825e-05 1.82299 0
-0.000240662 1.80542 0
-0.000320356 1.79664 0
-0.000460933 1.77907 0
-0.00052227 1.77029 0
-0.000628113 1.75272 0
-0.000673046 1.74394 0
-0.000748004 1.72638 0
-0.00077848 1.71761 0
-0.000826457 1.70005 0
-0.000844355 1.69128 0
-0.000868978 1.67373 0
-0.000876134 1.66495 0
-0.000881087 1.64741 0
-0.000879242 1.63863 0
-0.00086782 1.62109 0
-0.000858639 1.61232 0
-0.000834182 1.59478 0
-0.000819208 1.58602 0
-0.000784555 1.56848 0
-0.000765222 1.55972 0
-0.000723244 1.54218 0
-0.000700837 1.53342 0
-0.000653821 1.51589 0
-0.000629494 1.50713 0
-0.000579744 1.4896 0
-0.000554491 1.48084 0
-0.0005037 1.46331 0
-0.000478376 1.45455 0
-0.000428248 1.43703 0
-0.000403557 1.42827 0
-0.000355233 1.41075 0
-0.000331741 1.40199 0
-0.000286317 1.38447 0
-0.000264445 1.37571 0
-0.000222514 1.35819 0
-0.000202516 1.34943 0
-0.000164595 1.33191 0
-0.000146739 1.32315 0
-0.000113283 1.30563 0
-9.7685e-05 1.29687 0
-6.87691e-05 1.27935 0
-5.5469e-05 1.27059 0
-3.11481e-05 1.25308 0
-2.01037e-05 1.24432 0
-1.72241e-07 1.2268 0
8.73729e-06 1.21804 0
2.45182e-05 1.20052 0
3.14101e-05 1.19176 0
4.3309e-05 1.17424 0
4.83591e-05 1.16548 0
5.677e-05 1.14796 0
6.01684e-05 1.1392 0
6.54832e-05 1.12167 0
6.74441e-05 1.11291 0
7.00941e-05 1.09539 0
7.08274e-05 1.08663 0
7.12446e-05 1.06911 0
7.09687e-05 1.06035 0
6.95642e-05 1.04282 0
6.8479e-05 1.03406 0
6.56641e-05 1.01654 0
6.39668e-05 1.00778 0
6.00921e-05 0.990251 0
5.79522e-05 0.981489 0
5.33678e-05 0.963964 0
5.09481e-05 0.955201 0
4.59343e-05 0.937676 0
4.33693e-05 0.928913 0
3.81994e-05 0.911388 0
3.56072e-05 0.902625 0
3.04651e-05 0.885099 0
2.79309e-05 0.876336 0
2.29926e-05 0.858809 0
2.06039e-05 0.850046 0
1.60323e-05 0.832519 0
1.38544e-05 0.823756 0
9.74493e-06 0.806229 0
7.82157e-06 0.797466 0
4.26555e-06 0.779939 0
2.63045e-06 0.771175 0
-3.37688e-07 0.753648 0
-1.67075e-06 0.744885 0
-4.01765e-06 0.727357 0
-5.03236e-06 0.718594 0
-6.73375e-06 0.701066 0
-7.42597e-06 0.692303 0
-8.48655e-06 0.674775 0
-8.85881e-06 0.666012 0
-9.2817e-06 0.648484 0
-9.33652e-06 0.63972 0
-9.12845e-06 0.622193 0
-8.87058e-06 0.613429 0
-8.04685e-06 0.595901 0
-7.48527e-06 0.587138 0
-6.05977e-06 0.56961 0
-5.20118e-06 0.560846 0
-3.19548e-06 0.543319 0
-2.05313e-06 0.534555 0
5.1098e-07 0.517027 0
1.92647e-06 0.508263 0
5.01804e-06 0.490735 0
6.68864e-06 0.481972 0
1.02753e-05 0.464444 0
1.21828e-05 0.45568 0
1.62142e-05 0.438152 0
1.83308e-05 0.429388 0
2.27538e-05 0.411861 0
2.50478e-05 0.403097 0
2.97792e-05 0.385569 0
3.22061e-05 0.376806 0
3.71581e-05 0.359278 0
3.96653e-05 0.350514 0
4.47068e-05 0.332987 0
4.72261e-05 0.324223 0
5.22217e-05 0.306696 0
5.46712e-05 0.297933 0
5.9417e-05 0.280406 0
6.16886e-05 0.271642 0
6.59729e-05 0.254116 0
6.79615e-05 0.245352 0
7.15631e-05 0.227826 0
7.31389e-05 0.219063 0
7.57554e-05 0.201537 0
7.67628e-05 0.192774 0
7.80823e-05 0.175248 0
7.83481e-05 0.166485 0
[...]
CELL_DATA 546
POINT_DATA 2695
VECTORS Y Float64
0 0 0.0
0.0662906 -8.39151e-05 0.0
0.0700482 1.99635 0.0
0.00348954 1.99874 0.0
0.0221 0 0.0
0.0442 0 0.0
0.00736667 0 0.0
0.0147337 -9.60299e-06 0.0
0.0294655 -3.04928e-05 0.0
0.0368405 -3.35353e-05 0.0
0.0515551 -4.79836e-05 0.0
0.0589215 -7.00805e-05 0.0
0.0663283 0.0262313 0.0
0.0663471 0.0525328 0.0
0.0663612 0.0788309 0.0
0.0663708 0.105128 0.0
0.0663763 0.131424 0.0
0.0663783 0.15772 0.0
0.0663775 0.184014 0.0
0.0663745 0.210308 0.0
0.0663698 0.236601 0.0
0.0663639 0.262894 0.0
0.0663571 0.289186 0.0
0.0663497 0.315478 0.0
0.0663422 0.341769 0.0
0.0663347 0.36806 0.0
0.0663274 0.394351 0.0
0.0663205 0.420641 0.0
0.0663142 0.446931 0.0
0.0663084 0.473221 0.0
0.0663034 0.499511 0.0
0.0662992 0.5258 0.0
0.0662958 0.55209 0.0
0.0662932 0.578379 0.0
0.0662915 0.604668 0.0
0.0662907 0.630957 0.0
0.0662909 0.657246 0.0
0.066292 0.683535 0.0
0.0662941 0.709824 0.0
0.0662971 0.736112 0.0
0.0663011 0.762401 0.0
0.066306 0.788689 0.0
0.0663118 0.814977 0.0
0.0663183 0.841266 0.0
0.0663254 0.867554 0.0
0.066333 0.893843 0.0
0.0663408 0.920132 0.0
0.0663485 0.946421 0.0
0.0663557 0.97271 0.0
0.0663621 0.999 0.0
0.0663672 1.02529 0.0
0.0663704 1.05158 0.0
0.0663712 1.07787 0.0
0.066369 1.10416 0.0
0.0663631 1.13046 0.0
0.0663528 1.15675 0.0
0.0663377 1.18304 0.0
0.0663169 1.20934 0.0
0.0662902 1.23563 0.0
0.066257 1.26193 0.0
0.0662171 1.28822 0.0
0.0661702 1.31452 0.0
0.0661166 1.34081 0.0
0.0660566 1.36711 0.0
0.065991 1.3934 0.0
0.0659206 1.41969 0.0
0.0658465 1.44598 0.0
0.0657706 1.47226 0.0
0.065695 1.49855 0.0
0.0656221 1.52482 0.0
0.0655551 1.5511 0.0
0.0654973 1.57737 0.0
0.0654526 1.60363 0.0
0.0654252 1.62989 0.0
0.0654199 1.65615 0.0
0.0654414 1.68239 0.0
0.0654951 1.70863 0.0
0.0655863 1.73487 0.0
0.0657207 1.76109 0.0
0.0659039 1.78731 0.0
0.0661418 1.81352 0.0
0.0664402 1.83972 0.0
0.0668049 1.86591 0.0
0.0672411 1.89209 0.0
0.0677535 1.91827 0.0
0.0683433 1.94444 0.0
0.0690122 1.97058 0.0
0.0663067 0.00868878 0.0
0.0663194 0.0174609 0.0
0.0663352 0.0349994 0.0
0.0663414 0.0437664 0.0
0.0663523 0.061299 0.0
0.066357 0.070065 0.0
0.0663649 0.0875967 0.0
0.0663681 0.0963625 0.0
0.066373 0.113894 0.0
0.0663749 0.122659 0.0
0.0663773 0.14019 0.0
0.066378 0.148955 0.0
0.0663784 0.166485 0.0
0.0663781 0.17525 0.0
0.0663768 0.192779 0.0
0.0663758 0.201544 0.0
0.0663731 0.219073 0.0
0.0663716 0.227837 0.0
0.066368 0.245366 0.0
0.066366 0.25413 0.0
0.0663617 0.271658 0.0
0.0663594 0.280422 0.0
0.0663547 0.29795 0.0
0.0663522 0.306714 0.0
0.0663472 0.324242 0.0
0.0663447 0.333005 0.0
0.0663397 0.350533 0.0
0.0663372 0.359296 0.0
0.0663322 0.376824 0.0
0.0663298 0.385587 0.0
0.066325 0.403114 0.0
0.0663228 0.411878 0.0
0.0663183 0.429404 0.0
0.0663162 0.438168 0.0
0.0663122 0.455694 0.0
0.0663103 0.464458 0.0
0.0663067 0.481984 0.0
0.066305 0.490748 0.0
0.0663019 0.508274 0.0
0.0663005 0.517037 0.0
0.0662979 0.534564 0.0
0.0662968 0.543327 0.0
0.0662948 0.560853 0.0
0.0662939 0.569616 0.0
0.0662925 0.587142 0.0
0.066292 0.595905 0.0
0.0662911 0.613431 0.0
0.0662909 0.622194 0.0
0.0662907 0.63972 0.0
0.0662907 0.648483 0.0
0.0662911 0.666009 0.0
0.0662915 0.674772 0.0
0.0662926 0.692298 0.0
0.0662933 0.701061 0.0
0.066295 0.718587 0.0
0.066296 0.727349 0.0
0.0662983 0.744875 0.0
0.0662997 0.753638 0.0
0.0663026 0.771164 0.0
0.0663043 0.779926 0.0
0.0663078 0.797452 0.0
0.0663097 0.806215 0.0
0.0663139 0.82374 0.0
0.066316 0.832503 0.0
0.0663206 0.850029 0.0
0.066323 0.858791 0.0
0.0663279 0.876317 0.0
0.0663305 0.88508 0.0
0.0663356 0.902606 0.0
0.0663382 0.911369 0.0
0.0663434 0.928895 0.0
0.0663459 0.937658 0.0
0.066351 0.955184 0.0
0.0663534 0.963947 0.0
0.066358 0.981473 0.0
0.0663601 0.990237 0.0
0.066364 1.00776 0.0
0.0663657 1.01653 0.0
0.0663685 1.03405 0.0
0.0663696 1.04282 0.0
0.066371 1.06034 0.0
0.0663712 1.06911 0.0
0.0663708 1.08664 0.0
0.0663701 1.0954 0.0
0.0663674 1.11293 0.0
0.0663655 1.12169 0.0
0.0663602 1.13922 0.0
0.0663568 1.14799 0.0
0.0663483 1.16551 0.0
0.0663433 1.17428 0.0
0.0663314 1.19181 0.0
0.0663245 1.20057 0.0
0.0663087 1.2181 0.0
0.0662998 1.22687 0.0
0.0662798 1.2444 0.0
0.0662688 1.25316 0.0
0.0662445 1.27069 0.0
0.0662312 1.27946 0.0
0.0662022 1.29699 0.0
0.0661866 1.30575 0.0
0.0661531 1.32328 0.0
0.0661353 1.33205 0.0
0.0660973 1.34958 0.0
0.0660773 1.35834 0.0
0.0660354 1.37587 0.0
0.0660135 1.38463 0.0
0.065968 1.40216 0.0
0.0659445 1.41092 0.0
0.0658962 1.42845 0.0
0.0658715 1.43721 0.0
0.0658214 1.45474 0.0
0.065796 1.4635 0.0
0.0657453 1.48102 0.0
0.06572 1.48978 0.0
0.0656703 1.50731 0.0
0.065646 1.51607 0.0
0.065599 1.53358 0.0
0.0655766 1.54234 0.0
0.0655346 1.55986 0.0
0.0655153 1.56861 0.0
0.0654807 1.58613 0.0
0.0654658 1.59488 0.0
0.0654413 1.61239 0.0
0.0654321 1.62114 0.0
0.0654207 1.63865 0.0
0.0654189 1.6474 0.0
0.0654238 1.6649 0.0
0.0654309 1.67365 0.0
0.0654555 1.69114 0.0
0.0654733 1.69989 0.0
0.0655211 1.71738 0.0
0.0655514 1.72612 0.0
0.065626 1.74361 0.0
0.0656707 1.75235 0.0
0.065776 1.76983 0.0
0.065837 1.77857 0.0
0.0659768 1.79604 0.0
0.0660561 1.80478 0.0
0.0662343 1.82225 0.0
0.0663337 1.83098 0.0
0.0665541 1.84845 0.0
0.0666756 1.85718 0.0
0.0669421 1.87464 0.0
0.0670874 1.88337 0.0
0.0674033 1.90082 0.0
0.067574 1.90955 0.0
0.0679415 1.927 0.0
0.0681382 1.93572 0.0
0.0685565 1.95316 0.0
0.0687783 1.96188 0.0
0.0692452 1.97928 0.0
0.0695289 1.98788 0.0
0.047742 1.99753 0.0
0.0255891 1.99815 0.0
0.0626305 1.99697 0.0
0.0551677 1.9973 0.0
0.0403498 1.99774 0.0
0.0329655 1.99795 0.0
0.0182191 1.99834 0.0
0.0108532 1.99854 0.0
0.00276437 1.97242 0.0
0.00207395 1.94606 0.0
0.00147028 1.91968 0.0
0.000952418 1.89331 0.0
0.000512997 1.86693 0.0
0.000145891 1.84057 0.0
-0.000154411 1.81421 0.0
-0.000393705 1.78785 0.0
-0.000577926 1.7615 0.0
-0.000712937 1.73516 0.0
-0.000804566 1.70883 0.0
-0.00085846 1.6825 0.0
-0.000880113 1.65618 0.0
-0.000874756 1.62986 0.0
-0.000847378 1.60355 0.0
-0.000802611 1.57725 0.0
-0.000744748 1.55095 0.0
-0.000677651 1.52466 0.0
-0.000604776 1.49836 0.0
-0.00052911 1.47208 0.0
-0.000453209 1.44579 0.0
-0.000379195 1.41951 0.0
-0.00030876 1.39323 0.0
-0.000243174 1.36695 0.0
-0.000183199 1.34067 0.0
-0.000129636 1.31439 0.0
-8.28441e-05 1.28811 0.0
-4.29331e-05 1.26184 0.0
-9.78523e-06 1.23556 0.0
1.69638e-05 1.20928 0.0
3.76661e-05 1.183 0.0
5.28397e-05 1.15672 0.0
6.30653e-05 1.13044 0.0
6.89737e-05 1.10415 0.0
7.12043e-05 1.07787 0.0
7.04015e-05 1.05158 0.0
6.71739e-05 1.0253 0.0
6.21034e-05 0.999013 0.0
5.57069e-05 0.972726 0.0
4.84657e-05 0.946439 0.0
4.07892e-05 0.92015 0.0
3.30278e-05 0.893862 0.0
2.54376e-05 0.867572 0.0
1.82832e-05 0.841283 0.0
1.17573e-05 0.814993 0.0
5.99579e-06 0.788702 0.0
1.09674e-06 0.762412 0.0
-2.89749e-06 0.736121 0.0
-5.93656e-06 0.70983 0.0
-8.00921e-06 0.683539 0.0
-9.12322e-06 0.657248 0.0
-9.28444e-06 0.630957 0.0
-8.50936e-06 0.604665 0.0
-6.82199e-06 0.578374 0.0
-4.24561e-06 0.552082 0.0
-8.16562e-07 0.525791 0.0
3.42978e-06 0.499499 0.0
8.44251e-06 0.473208 0.0
1.41637e-05 0.446916 0.0
2.05128e-05 0.420625 0.0
2.73915e-05 0.394333 0.0
3.46689e-05 0.368042 0.0
4.21843e-05 0.341751 0.0
4.97357e-05 0.31546 0.0
5.7075e-05 0.289169 0.0
6.38781e-05 0.262879 0.0
6.98311e-05 0.236589 0.0
7.45422e-05 0.2103 0.0
7.75464e-05 0.184011 0.0
7.83229e-05 0.157723 0.0
7.62857e-05 0.131435 0.0
7.07872e-05 0.105149 0.0
6.10739e-05 0.0788631 0.0
4.61537e-05 0.0525784 0.0
2.50361e-05 0.0262935 0.0
0.00324971 1.98997 0.0
0.00300709 1.9812 0.0
0.00252598 1.96364 0.0
0.00229528 1.95485 0.0
0.00186279 1.93727 0.0
0.00166162 1.92848 0.0
0.00128851 1.91089 0.0
0.00111597 1.9021 0.0
0.000797558 1.88451 0.0
0.00065115 1.87572 0.0
0.000382861 1.85814 0.0
0.000260559 1.84936 0.0
3.86482e-05 1.83178 0.0
-6.13825e-05 1.82299 0.0
-0.000240662 1.80542 0.0
-0.000320356 1.79664 0.0
-0.000460933 1.77907 0.0
-0.00052227 1.77029 0.0
-0.000628113 1.75272 0.0
-0.000673046 1.74394 0.0
-0.000748004 1.72638 0.0
-0.00077848 1.71761 0.0
-0.000826457 1.70005 0.0
-0.000844355 1.69128 0.0
-0.000868978 1.67373 0.0
-0.000876134 1.66495 0.0
-0.000881087 1.64741 0.0
-0.000879242 1.63863 0.0
-0.00086782 1.62109 0.0
-0.000858639 1.61232 0.0
-0.000834182 1.59478 0.0
-0.000819208 1.58602 0.0
-0.000784555 1.56848 0.0
-0.000765222 1.55972 0.0
-0.000723244 1.54218 0.0
-0.000700837 1.53342 0.0
-0.000653821 1.51589 0.0
-0.000629494 1.50713 0.0
-0.000579744 1.4896 0.0
-0.000554491 1.48084 0.0
-0.0005037 1.46331 0.0
-0.000478376 1.45455 0.0
-0.000428248 1.43703 0.0
-0.000403557 1.42827 0.0
-0.000355233 1.41075 0.0
-0.000331741 1.40199 0.0
-0.000286317 1.38447 0.0
-0.000264445 1.37571 0.0
-0.000222514 1.35819 0.0
-0.000202516 1.34943 0.0
-0.000164595 1.33191 0.0
-0.000146739 1.32315 0.0
-0.000113283 1.30563 0.0
-9.7685e-05 1.29687 0.0
-6.87691e-05 1.27935 0.0
-5.5469e-05 1.27059 0.0
-3.11481e-05 1.25308 0.0
-2.01037e-05 1.24432 0.0
-1.72241e-07 1.2268 0.0
8.73729e-06 1.21804 0.0
2.45182e-05 1.20052 0.0
3.14101e-05 1.19176 0.0
4.3309e-05 1.17424 0.0
4.83591e-05 1.16548 0.0
5.677e-05 1.14796 0.0
6.01684e-05 1.1392 0.0
6.54832e-05 1.12167 0.0
6.74441e-05 1.11291 0.0
7.00941e-05 1.09539 0.0
7.08274e-05 1.08663 0.0
7.12446e-05 1.06911 0.0
7.09687e-05 1.06035 0.0
6.95642e-05 1.04282 0.0
6.8479e-05 1.03406 0.0
6.56641e-05 1.01654 0.0
6.39668e-05 1.00778 0.0
6.00921e-05 0.990251 0.0
5.79522e-05 0.981489 0.0
5.33678e-05 0.963964 0.0
5.09481e-05 0.955201 0.0
4.59343e-05 0.937676 0.0
4.33693e-05 0.928913 0.0
3.81994e-05 0.911388 0.0
3.56072e-05 0.902625 0.0
3.04651e-05 0.885099 0.0
2.79309e-05 0.876336 0.0
2.29926e-05 0.858809 0.0
2.06039e-05 0.850046 0.0
1.60323e-05 0.832519 0.0
1.38544e-05 0.823756 0.0
9.74493e-06 0.806229 0.0
7.82157e-06 0.797466 0.0
4.26555e-06 0.779939 0.0
2.63045e-06 0.771175 0.0
-3.37688e-07 0.753648 0.0
-1.67075e-06 0.744885 0.0
-4.01765e-06 0.727357 0.0
-5.03236e-06 0.718594 0.0
-6.73375e-06 0.701066 0.0
-7.42597e-06 0.692303 0.0
-8.48655e-06 0.674775 0.0
-8.85881e-06 0.666012 0.0
-9.2817e-06 0.648484 0.0
-9.33652e-06 0.63972 0.0
-9.12845e-06 0.622193 0.0
-8.87058e-06 0.613429 0.0
-8.04685e-06 0.595901 0.0
-7.48527e-06 0.587138 0.0
-6.05977e-06 0.56961 0.0
-5.20118e-06 0.560846 0.0
-3.19548e-06 0.543319 0.0
-2.05313e-06 0.534555 0.0
5.1098e-07 0.517027 0.0
1.92647e-06 0.508263 0.0
5.01804e-06 0.490735 0.0
6.68864e-06 0.481972 0.0
1.02753e-05 0.464444 0.0
1.21828e-05 0.45568 0.0
1.62142e-05 0.438152 0.0
1.83308e-05 0.429388 0.0
2.27538e-05 0.411861 0.0
2.50478e-05 0.403097 0.0
2.97792e-05 0.385569 0.0
3.22061e-05 0.376806 0.0
3.71581e-05 0.359278 0.0
3.96653e-05 0.350514 0.0
4.47068e-05 0.332987 0.0
4.72261e-05 0.324223 0.0
5.22217e-05 0.306696 0.0
5.46712e-05 0.297933 0.0
5.9417e-05 0.280406 0.0
6.16886e-05 0.271642 0.0
6.59729e-05 0.254116 0.0
6.79615e-05 0.245352 0.0
7.15631e-05 0.227826 0.0
7.31389e-05 0.219063 0.0
7.57554e-05 0.201537 0.0
7.67628e-05 0.192774 0.0
7.80823e-05 0.175248 0.0
7.83481e-05 0.166485 0.0
7.79849e-05 0.14896 0.0
7.73135e-05 0.140198 0.0
7.48735e-05 0.122673 0.0
7.30495e-05 0.113911 0.0
6.80583e-05 0.0963868 0.0
6.48321e-05 0.0876249 0.0
5.67387e-05 0.0701014 0.0
5.17789e-05 0.0613399 0.0
3.981e-05 0.0438169 0.0
3.27516e-05 0.0350553 0.0
1.62481e-05 0.0175318 0.0
6.97963e-06 0.00876797 0.0
0.0357968 1.96703 0.0
0.0332052 0.0307712 0.0
0.033209 0.985862 0.0
0.0332191 1.03844 0.0
0.0332205 1.09101 0.0
0.0331947 0.933285 0.0
0.0332085 1.14359 0.0
0.0322492 0.850952 0.0
0.033178 1.19616 0.0
0.0331588 0.80184 0.0
0.0336438 0.720213 0.0
0.0340042 1.27849 0.0
0.032219 0.640635 0.0
0.0329943 1.3276 0.0
0.0331474 0.538941 0.0
0.0331558 0.48636 0.0
0.0326588 1.45903 0.0
0.033196 0.328614 0.0
0.0322961 0.246273 0.0
0.0322864 1.61674 0.0
0.0332277 0.144576 0.0
0.0323859 1.72187 0.0
0.032277 1.6693 0.0
0.0331354 1.827 0.0
0.0333264 1.90812 0.0
0.0332165 0.0919927 0.0
0.0326567 1.77444 0.0
0.0323748 1.56417 0.0
0.0325081 1.5116 0.0
0.0332263 0.197158 0.0
0.0337187 1.40993 0.0
0.033181 0.381196 0.0
0.0331673 0.433778 0.0
0.0331422 0.591522 0.0
0.0334363 0.889755 0.0
0.032881 1.23969 0.0
0.0334048 0.758309 0.0
0.0333962 0.67944 0.0
0.0326424 1.37112 0.0
0.0334626 0.285081 0.0
0.033468 1.87052 0.0
0.0391103 1.93589 0.0
0.0373255 0.0618241 0.0
0.0233874 1.01215 0.0
0.0430296 0.959571 0.0
0.0233937 1.06473 0.0
0.0233891 1.1173 0.0
0.0447554 0.827679 0.0
0.0233685 1.16987 0.0
0.0214532 1.30174 0.0
0.0429787 0.512652 0.0
0.0426941 1.80063 0.0
0.022671 1.74821 0.0
0.022442 1.64302 0.0
0.0224866 1.69561 0.0
0.0450941 0.122663 0.0
0.0448131 0.223003 0.0
0.0227553 1.48529 0.0
0.0430557 0.170867 0.0
0.0224956 1.59044 0.0
0.0429887 0.460071 0.0
0.0211422 1.43316 0.0
0.0447316 0.617364 0.0
0.0430159 0.354908 0.0
0.0226103 1.53786 0.0
0.0429718 0.565232 0.0
0.0430013 0.40749 0.0
0.0211817 0.912987 0.0
0.0211476 0.78154 0.0
0.0212806 0.702056 0.0
0.0451673 1.21648 0.0
0.0449579 1.34792 0.0
0.0453917 1.84713 0.0
0.0211948 0.308307 0.0
0.0457348 0.912079 0.0
0.0457008 0.780635 0.0
0.020613 1.21735 0.0
0.0457225 0.701256 0.0
0.0204026 1.34877 0.0
0.0457484 0.307413 0.0
0.0208528 1.84837 0.0
0.045987 1.53791 0.0
0.0458632 1.69556 0.0
0.0458188 1.64302 0.0
0.0196246 0.407484 0.0
0.0458723 1.59047 0.0
0.0463647 1.43327 0.0
0.046132 1.48535 0.0
0.0460473 1.74808 0.0
0.0189531 0.118288 0.0
0.0466758 1.30183 0.0
0.0196391 0.354902 0.0
0.0196789 0.170867 0.0
0.0195903 0.222954 0.0
0.0196119 0.460066 0.0
0.019595 0.56523 0.0
0.0467452 1.16989 0.0
0.0195088 0.617318 0.0
0.0467658 1.11731 0.0
0.0467705 1.06473 0.0
0.0196019 0.512648 0.0
0.0195327 0.827639 0.0
0.0196529 0.959577 0.0
0.0193185 1.80085 0.0
0.0467642 1.01215 0.0
0.017271 0.0705089 0.0
0.0187577 1.92821 0.0
0.0456833 0.871227 0.0
0.0206052 1.2582 0.0
0.0456544 0.739782 0.0
0.0456478 0.660913 0.0
0.0457198 0.266556 0.0
0.0203438 1.38962 0.0
0.0451159 1.89081 0.0
0.021473 1.88948 0.0
0.0453574 1.38968 0.0
0.0207061 0.266551 0.0
0.0456189 1.25823 0.0
0.0206341 0.660914 0.0
0.0206408 0.739785 0.0
0.0206696 0.871233 0.0
0.0481374 0.0190905 0.0
0.0211397 1.97911 0.0
0.0510494 1.97827 0.0
0.0182014 0.0191177 0.0
0.0205018 0.0447411 0.0
0.0227162 1.95343 0.0
0.046976 0.0428876 0.0
0.0492241 1.95455 0.0
0.0484471 1.91901 0.0
0.0488346 0.0783923 0.0
0.0140327 1.03844 0.0
0.0523954 0.985858 0.0
0.0140342 1.09101 0.0
0.052381 0.93328 0.0
0.0140222 1.14358 0.0
0.0139917 1.19615 0.0
0.0523451 0.801836 0.0
0.0138081 1.32756 0.0
0.0523337 0.538943 0.0
0.0523422 0.486363 0.0
0.0139559 0.59152 0.0
0.0134726 1.45897 0.0
0.0523823 0.32862 0.0
0.013981 0.433774 0.0
0.0139947 0.381191 0.0
0.0131002 1.61672 0.0
0.0516944 1.51165 0.0
0.0515611 1.56421 0.0
0.052414 0.144573 0.0
0.0131998 1.72194 0.0
0.01404 0.197157 0.0
0.0130907 1.66933 0.0
0.0514633 1.66928 0.0
0.0139155 0.0929602 0.0
0.0518425 1.7743 0.0
0.0523203 1.82678 0.0
0.0515721 1.7218 0.0
0.0131886 1.56413 0.0
0.013471 1.77458 0.0
0.0139505 1.82723 0.0
0.0133219 1.51155 0.0
0.0514728 1.61675 0.0
0.0524126 0.19716 0.0
0.0140414 0.144578 0.0
0.0523673 0.381202 0.0
0.0523536 0.433783 0.0
0.0140097 0.328609 0.0
0.0518451 1.45908 0.0
0.0523285 0.591523 0.0
0.0139695 0.486356 0.0
0.0521806 1.32764 0.0
0.013961 0.538938 0.0
0.0523643 1.19618 0.0
0.0523948 1.1436 0.0
0.0139725 0.801845 0.0
0.0140227 0.985867 0.0
0.0524068 1.09102 0.0
0.0524054 1.03844 0.0
0.0140083 0.933291 0.0
0.0510662 0.851736 0.0
0.0151887 1.27768 0.0
0.0519646 0.722046 0.0
0.0510358 0.641423 0.0
0.0511127 0.247066 0.0
0.0149041 1.40909 0.0
0.0154525 1.9073 0.0
0.0145455 0.247049 0.0
0.0514713 1.40919 0.0
0.0517559 1.27774 0.0
0.0144685 0.641414 0.0
0.0151111 0.721601 0.0
0.0144989 0.851736 0.0
0.0331665 0.0133321 0.0
0.0362736 1.98448 0.0
0.0442681 0.0963704 0.0
0.0553195 0.100749 0.0
0.0592788 0.110974 0.0
0.0521865 0.116819 0.0
0.0411355 0.112439 0.0
0.0371763 0.102216 0.0
0.0482276 0.106594 0.0
0.0384227 0.0874595 0.0
0.0436287 0.082926 0.0
0.0546805 0.0873035 0.0
0.0605259 0.0962155 0.0
0.0494743 0.0918371 0.0
0.0556923 1.86744 0.0
0.04458 1.86898 0.0
0.0374363 1.86272 0.0
0.0414109 1.85492 0.0
0.0525254 1.8534 0.0
0.0596631 1.85966 0.0
0.0485496 1.86119 0.0
0.0111923 0.287806 0.0
0.0223274 0.286444 0.0
0.0293734 0.292823 0.0
0.0252841 0.300565 0.0
0.0141489 0.301928 0.0
0.007103 0.295548 0.0
0.0182382 0.294186 0.0
0.0549186 1.36844 0.0
0.0437805 1.36978 0.0
0.0367481 1.36339 0.0
0.0408533 1.35566 0.0
0.0519912 1.35432 0.0
0.0590241 1.36071 0.0
0.0478861 1.36205 0.0
0.0551538 1.23699 0.0
0.0440174 1.23834 0.0
0.036977 1.23195 0.0
0.0410724 1.22422 0.0
0.0522086 1.22286 0.0
0.0592496 1.22925 0.0
0.0481133 1.2306 0.0
0.0111267 0.682173 0.0
0.0222614 0.680806 0.0
0.0293576 0.686979 0.0
0.0253191 0.694517 0.0
0.0141844 0.695884 0.0
0.00708816 0.689712 0.0
0.0182229 0.688345 0.0
0.0111357 0.761044 0.0
0.0222703 0.759677 0.0
0.029319 0.766053 0.0
0.0252333 0.773796 0.0
0.0140987 0.775164 0.0
0.00704987 0.768788 0.0
0.0181844 0.76742 0.0
0.0111674 0.892493 0.0
0.0223018 0.891124 0.0
0.0293514 0.897499 0.0
0.0252665 0.905243 0.0
0.0141321 0.906612 0.0
0.00708257 0.900237 0.0
0.018217 0.898868 0.0
0.00691187 0.886319 0.0
0.0137907 0.878776 0.0
0.0249252 0.877407 0.0
0.0291807 0.883581 0.0
0.0180463 0.88495 0.0
0.00688091 0.754869 0.0
0.0137608 0.747327 0.0
0.0248954 0.74596 0.0
0.0291501 0.752135 0.0
0.0180155 0.753502 0.0
0.0594003 1.24317 0.0
0.0525098 1.2507 0.0
0.0413733 1.25205 0.0
0.0371273 1.24587 0.0
0.0482638 1.24452 0.0
0.00687263 0.675997 0.0
0.0137533 0.668456 0.0
0.0248881 0.66709 0.0
0.0291421 0.673265 0.0
0.0180074 0.674631 0.0
0.0591573 1.37463 0.0
0.0522576 1.38215 0.0
0.0411193 1.38349 0.0
0.036881 1.37731 0.0
0.0480192 1.37597 0.0
0.0553674 0.89248 0.0
0.0444018 0.891118 0.0
0.0375186 0.883579 0.0
0.0416009 0.877403 0.0
0.0525665 0.878765 0.0
0.0594498 0.886304 0.0
0.0484842 0.884942 0.0
0.0109538 1.23693 0.0
0.0219174 1.23831 0.0
0.0287894 1.24586 0.0
0.0246975 1.25203 0.0
0.0137341 1.25065 0.0
0.00686242 1.2431 0.0
0.0178259 1.24448 0.0
0.0553357 0.761037 0.0
0.0443703 0.759673 0.0
0.037488 0.752133 0.0
0.0415712 0.745957 0.0
0.0525366 0.747321 0.0
0.0594188 0.754861 0.0
0.0484534 0.753497 0.0
0.0553267 0.68217 0.0
0.0443614 0.680805 0.0
0.03748 0.673264 0.0
0.0415639 0.667089 0.0
0.0525291 0.668454 0.0
0.0594105 0.675995 0.0
0.0484453 0.67463 0.0
0.00694015 0.28163 0.0
0.0138232 0.27409 0.0
0.0249583 0.272727 0.0
0.0292105 0.278904 0.0
0.0180753 0.280267 0.0
0.0107187 1.36834 0.0
0.0216806 1.36973 0.0
0.0285432 1.37729 0.0
0.0244436 1.38345 0.0
0.0134819 1.38206 0.0
0.00661959 1.3745 0.0
0.0175814 1.3759 0.0
0.0553923 0.287818 0.0
0.0444274 0.286449 0.0
0.0375484 0.278906 0.0
0.0416341 0.272731 0.0
0.052599 0.2741 0.0
0.059478 0.281643 0.0
0.0485132 0.280274 0.0
0.0114979 1.86813 0.0
0.0224829 1.86933 0.0
0.0294653 1.87683 0.0
0.025467 1.88315 0.0
0.0144802 1.88198 0.0
0.00749361 1.87446 0.0
0.0184794 1.87565 0.0
0.0595678 1.8742 0.0
0.0523381 1.8825 0.0
0.0412283 1.88405 0.0
0.0373457 1.87729 0.0
0.0484566 1.87574 0.0
0.0524909 1.89124 0.0
0.059866 1.89167 0.0
0.0609672 1.90105 0.0
0.0547025 1.91003 0.0
0.0473267 1.90961 0.0
0.0462163 1.90022 0.0
0.0535917 1.90063 0.0
0.0594669 0.899922 0.0
0.0526009 0.906 0.0
0.0416353 0.904638 0.0
0.0375358 0.897197 0.0
0.0485013 0.898559 0.0
0.00686483 1.22949 0.0
0.0137391 1.22342 0.0
0.0247029 1.2248 0.0
0.0287922 1.23224 0.0
0.0178285 1.23087 0.0
0.0594343 0.768479 0.0
0.0525675 0.774557 0.0
0.0416021 0.773193 0.0
0.0375034 0.765751 0.0
0.0484688 0.767115 0.0
0.0594354 0.689442 0.0
0.0525789 0.695349 0.0
0.0416136 0.693984 0.0
0.0375049 0.686712 0.0
0.0484702 0.688077 0.0
0.00663908 1.36089 0.0
0.013521 1.35483 0.0
0.024483 1.35622 0.0
0.0285629 1.36367 0.0
0.017601 1.36228 0.0
0.0594875 0.295262 0.0
0.052618 0.301337 0.0
0.0416532 0.299969 0.0
0.0375579 0.292525 0.0
0.0485227 0.293893 0.0
0.00728904 1.86074 0.0
0.014069 1.85455 0.0
0.0250523 1.85576 0.0
0.0292573 1.86314 0.0
0.0182731 1.86194 0.0
0.0585974 1.9416 0.0
0.0488533 1.93875 0.0
0.0422185 1.93026 0.0
0.0453309 1.92463 0.0
0.0550712 1.9275 0.0
0.0617032 1.93598 0.0
0.0519603 1.93312 0.0
0.0469995 0.0587273 0.0
0.0566733 0.0556301 0.0
0.0605101 0.0611534 0.0
0.0546726 0.0697732 0.0
0.0449985 0.0728692 0.0