# vtk DataFile Version 2.0
FEM, Created by Wutzow
ASCII
DATASET UNSTRUCTURED_GRID
POINTS 2695 Float64
0 0 0
0.0662837 -0.00014412 0
0.0740797 1.99273 0
0.00732636 1.99782 0
0.0221 0 0
0.0442 0 0
0.00736667 0 0
0.014734 -1.64309e-05 0
0.0294647 -5.22775e-05 0
0.0368455 -5.75462e-05 0
0.0515467 -8.24158e-05 0
0.058913 -0.000120347 0
0.0663487 0.0261707 0
0.0663811 0.052462 0
0.0664056 0.0787476 0
0.0664226 0.105031 0
0.0664325 0.131314 0
0.0664366 0.157595 0
0.0664359 0.183874 0
0.0664314 0.210152 0
0.066424 0.236429 0
0.0664146 0.262705 0
0.0664036 0.288981 0
0.0663918 0.315255 0
0.0663796 0.341528 0
0.0663676 0.367801 0
0.066356 0.394073 0
0.0663452 0.420345 0
0.0663353 0.446616 0
0.0663266 0.472887 0
0.0663192 0.499157 0
0.0663133 0.525428 0
0.0663088 0.551697 0
0.0663057 0.577967 0
0.0663042 0.604236 0
0.0663042 0.630505 0
0.0663056 0.656774 0
0.0663084 0.683043 0
0.0663125 0.709311 0
0.0663179 0.73558 0
0.0663243 0.761848 0
0.0663317 0.788115 0
0.0663399 0.814383 0
0.0663487 0.840651 0
0.0663579 0.866919 0
0.0663671 0.893186 0
0.0663761 0.919454 0
0.0663844 0.945722 0
0.0663915 0.97199 0
0.066397 0.998259 0
0.0664002 1.02453 0
0.0664004 1.0508 0
0.0663968 1.07707 0
0.0663884 1.10334 0
0.0663744 1.12961 0
0.0663537 1.15588 0
0.0663251 1.18216 0
0.0662876 1.20843 0
0.06624 1.23471 0
0.0661815 1.26098 0
0.066111 1.28726 0
0.0660279 1.31353 0
0.0659319 1.33981 0
0.0658231 1.36609 0
0.0657024 1.39236 0
0.0655704 1.41863 0
0.0654291 1.4449 0
0.0652812 1.47116 0
0.0651303 1.49741 0
0.0649812 1.52366 0
0.0648396 1.5499 0
0.0647126 1.57614 0
0.0646082 1.60236 0
0.0645356 1.62856 0
0.0645053 1.65475 0
0.0645285 1.68093 0
0.0646174 1.70709 0
0.0647847 1.73324 0
0.0650438 1.75936 0
0.0654082 1.78547 0
0.0658916 1.81155 0
0.0665071 1.83762 0
0.0672673 1.86367 0
0.068183 1.8897 0
0.0692631 1.91571 0
0.0705088 1.9417 0
0.0719191 1.96764 0
0.0663115 0.00862911 0
0.0663334 0.0174013 0
0.0663606 0.034936 0
0.0663713 0.0436995 0
0.0663901 0.0612241 0
0.0663983 0.0699859 0
0.0664121 0.087509 0
0.0664178 0.0962703 0
0.0664266 0.113792 0
0.0664299 0.122553 0
0.0664345 0.140074 0
0.0664358 0.148835 0
0.0664369 0.166355 0
0.0664366 0.175114 0
0.0664348 0.192634 0
0.0664333 0.201393 0
0.0664293 0.218912 0
0.0664268 0.227671 0
0.0664211 0.245188 0
0.0664179 0.253947 0
0.066411 0.271464 0
0.0664074 0.280222 0
0.0663998 0.297739 0
0.0663958 0.306497 0
0.0663878 0.324013 0
0.0663837 0.332771 0
0.0663756 0.350286 0
0.0663716 0.359044 0
0.0663637 0.376559 0
0.0663598 0.385316 0
0.0663523 0.402831 0
0.0663487 0.411588 0
0.0663418 0.429102 0
0.0663385 0.437859 0
0.0663323 0.455373 0
0.0663294 0.46413 0
0.066324 0.481644 0
0.0663215 0.490401 0
0.0663171 0.507914 0
0.0663151 0.516671 0
0.0663116 0.534184 0
0.0663101 0.542941 0
0.0663076 0.560454 0
0.0663066 0.569211 0
0.0663051 0.586724 0
0.0663046 0.59548 0
0.066304 0.612993 0
0.066304 0.621749 0
0.0663045 0.639262 0
0.066305 0.648018 0
0.0663064 0.665531 0
0.0663073 0.674287 0
0.0663096 0.691799 0
0.066311 0.700555 0
0.0663142 0.718067 0
0.0663159 0.726824 0
0.0663199 0.744336 0
0.066322 0.753092 0
0.0663267 0.770604 0
0.0663291 0.779359 0
0.0663343 0.796871 0
0.0663371 0.805627 0
0.0663428 0.823139 0
0.0663457 0.831895 0
0.0663517 0.849407 0
0.0663548 0.858163 0
0.066361 0.875674 0
0.0663641 0.88443 0
0.0663702 0.901942 0
0.0663731 0.910698 0
0.0663789 0.92821 0
0.0663817 0.936966 0
0.0663869 0.954478 0
0.0663893 0.963234 0
0.0663936 0.980746 0
0.0663954 0.989503 0
0.0663984 1.00702 0
0.0663995 1.01577 0
0.0664007 1.03328 0
0.0664007 1.04204 0
0.0663997 1.05955 0
0.0663985 1.06831 0
0.0663946 1.08582 0
0.0663918 1.09458 0
0.0663845 1.1121 0
0.0663798 1.12085 0
0.0663683 1.13837 0
0.0663614 1.14713 0
0.0663451 1.16464 0
0.0663356 1.1734 0
0.0663136 1.19091 0
0.0663011 1.19967 0
0.0662729 1.21719 0
0.066257 1.22595 0
0.0662218 1.24346 0
0.0662023 1.25222 0
0.0661594 1.26974 0
0.0661359 1.2785 0
0.0660847 1.29602 0
0.066057 1.30478 0
0.0659974 1.32229 0
0.0659654 1.33105 0
0.065897 1.34857 0
0.0658608 1.35733 0
0.0657842 1.37484 0
0.0657439 1.3836 0
0.0656596 1.40112 0
0.0656156 1.40987 0
0.0655242 1.42738 0
0.0654771 1.43614 0
0.0653804 1.45365 0
0.0653311 1.4624 0
0.065231 1.47991 0
0.0651806 1.48866 0
0.0650802 1.50617 0
0.0650304 1.51492 0
0.0649328 1.53241 0
0.0648855 1.54116 0
0.0647953 1.55865 0
0.0647529 1.56739 0
0.0646748 1.58488 0
0.0646399 1.59362 0
0.06458 1.61109 0
0.0645557 1.61983 0
0.0645203 1.63729 0
0.06451 1.64603 0
0.0645066 1.66348 0
0.0645142 1.67221 0
0.0645502 1.68965 0
0.0645797 1.69837 0
0.0646638 1.71581 0
0.0647194 1.72452 0
0.0648602 1.74195 0
0.0649464 1.75065 0
0.0651529 1.76807 0
0.0652742 1.77677 0
0.0655555 1.79416 0
0.0657164 1.80286 0
0.0660814 1.82024 0
0.0662864 1.82893 0
0.0667438 1.84631 0
0.0669971 1.85499 0
0.0675547 1.87235 0
0.0678598 1.88102 0
0.0685244 1.89837 0
0.0688844 1.90704 0
0.0696602 1.92438 0
0.0700755 1.93304 0
0.0709589 1.95036 0
0.0714269 1.95901 0
0.0724074 1.97624 0
0.0729925 1.98464 0
0.0515996 1.99525 0
0.0294064 1.99656 0
0.0666426 1.99406 0
0.0590851 1.99477 0
0.0441855 1.99571 0
0.0367878 1.99614 0
0.0220389 1.99698 0
0.0146802 1.9974 0
0.00578933 1.97152 0
0.00432087 1.94513 0
0.00303499 1.9187 0
0.00193369 1.89226 0
0.00100341 1.86582 0
0.000231907 1.8394 0
-0.000392221 1.81298 0
-0.000881805 1.78657 0
-0.00125059 1.76018 0
-0.00151244 1.73381 0
-0.0016814 1.70745 0
-0.00177106 1.6811 0
-0.00179456 1.65477 0
-0.00176422 1.62846 0
-0.00169153 1.60215 0
-0.00158689 1.57586 0
-0.00145965 1.54958 0
-0.00131793 1.52331 0
-0.00116873 1.49705 0
-0.00101783 1.47079 0
-0.000869938 1.44454 0
-0.000728726 1.41829 0
-0.00059689 1.39204 0
-0.000476234 1.3658 0
-0.000367553 1.33955 0
-0.000271694 1.31331 0
-0.000188729 1.28706 0
-0.000118328 1.26082 0
-5.98506e-05 1.23457 0
-1.23435e-05 1.20832 0
2.51456e-05 1.18207 0
5.3711e-05 1.15582 0
7.44462e-05 1.12956 0
8.84614e-05 1.10331 0
9.67837e-05 1.07705 0
0.000100412 1.05079 0
0.00010022 1.02453 0
9.70306e-05 0.998268 0
9.15282e-05 0.972005 0
8.43635e-05 0.94574 0
7.60729e-05 0.919475 0
6.71301e-05 0.893208 0
5.78854e-05 0.866941 0
4.87058e-05 0.840673 0
3.98886e-05 0.814404 0
3.16778e-05 0.788135 0
2.42837e-05 0.761865 0
1.78475e-05 0.735594 0
1.25249e-05 0.709323 0
8.42018e-06 0.683051 0
5.61704e-06 0.656779 0
4.19915e-06 0.630507 0
4.22687e-06 0.604234 0
5.73629e-06 0.577961 0
8.75533e-06 0.551688 0
1.32667e-05 0.525415 0
1.9247e-05 0.499141 0
2.66249e-05 0.472867 0
3.53116e-05 0.446593 0
4.51631e-05 0.420319 0
5.60046e-05 0.394046 0
6.75958e-05 0.367772 0
7.96496e-05 0.341499 0
9.18055e-05 0.315226 0
0.000103629 0.288953 0
0.000114557 0.262681 0
0.000124048 0.23641 0
0.00013143 0.210139 0
0.000135914 0.18387 0
0.000136616 0.157601 0
0.000132543 0.131334 0
0.000122595 0.105068 0
0.000105492 0.0788038 0
7.95468e-05 0.052541 0
4.30655e-05 0.026278 0
0.00681847 1.98906 0
0.00630431 1.9803 0
0.00528281 1.96274 0
0.00479209 1.95394 0
0.00387108 1.93632 0
0.00344251 1.92751 0
0.00264804 1.90988 0
0.00228109 1.90107 0
0.00160524 1.88345 0
0.00129528 1.87463 0
0.000729142 1.85701 0
0.000472112 1.8482 0
8.08909e-06 1.83059 0
-0.000199796 1.82178 0
-0.000569693 1.80418 0
-0.000732723 1.79537 0
-0.00101746 1.77777 0
-0.00114022 1.76898 0
-0.00134907 1.75139 0
-0.00143619 1.7426 0
-0.00157836 1.72502 0
-0.00163452 1.71623 0
-0.00171947 1.69866 0
-0.0017492 1.68988 0
-0.00178556 1.67232 0
-0.00179325 1.66355 0
-0.00178988 1.646 0
-0.00177963 1.63723 0
-0.0017441 1.61969 0
-0.00171975 1.61092 0
-0.00165976 1.59339 0
-0.00162477 1.58462 0
-0.0015465 1.5671 0
-0.00150399 1.55834 0
-0.00141369 1.54082 0
-0.00136637 1.53207 0
-0.00126866 1.51456 0
-0.00121886 1.5058 0
-0.0011184 1.48829 0
-0.00106804 1.47954 0
-0.000967945 1.46204 0
-0.000918611 1.45329 0
-0.000822 1.43579 0
-0.000774898 1.42704 0
-0.000683601 1.40954 0
-0.00063964 1.40079 0
-0.000555381 1.38329 0
-0.000515152 1.37455 0
-0.000438623 1.35705 0
-0.000402395 1.3483 0
-0.000334138 1.33081 0
-0.000302191 1.32206 0
-0.000242625 1.30456 0
-0.000214976 1.29581 0
-0.000163879 1.27832 0
-0.000140427 1.26957 0
-9.75541e-05 1.25207 0
-7.80765e-05 1.24332 0
-4.28375e-05 1.22582 0
-2.70192e-05 1.21707 0
1.21882e-06 1.19957 0
1.36952e-05 1.19082 0
3.56061e-05 1.17332 0
4.51124e-05 1.16457 0
6.14382e-05 1.14707 0
6.83301e-05 1.13832 0
7.98162e-05 1.12081 0
8.44731e-05 1.11206 0
9.18156e-05 1.09456 0
9.45716e-05 1.0858 0
9.84744e-05 1.0683 0
9.96709e-05 1.05954 0
0.000100728 1.04204 0
0.000100648 1.03328 0
9.94586e-05 1.01578 0
9.83849e-05 1.00702 0
9.54182e-05 0.989514 0
9.35712e-05 0.980759 0
8.93006e-05 0.96325 0
8.6903e-05 0.954495 0
8.16977e-05 0.936985 0
7.89234e-05 0.92823 0
7.31492e-05 0.910719 0
7.01593e-05 0.901964 0
6.40643e-05 0.884453 0
6.09751e-05 0.875697 0
5.48028e-05 0.858185 0
5.1735e-05 0.849429 0
4.57165e-05 0.831917 0
4.27717e-05 0.823161 0
3.70723e-05 0.805648 0
3.43284e-05 0.796891 0
2.91173e-05 0.779378 0
2.6647e-05 0.770621 0
2.20252e-05 0.753108 0
1.98748e-05 0.744351 0
1.5945e-05 0.726837 0
1.41653e-05 0.71808 0
1.10189e-05 0.700566 0
9.64593e-06 0.691809 0
7.33789e-06 0.674294 0
6.39978e-06 0.665537 0
4.98837e-06 0.648022 0
4.51153e-06 0.639265 0
4.04717e-06 0.62175 0
4.05388e-06 0.612992 0
4.56427e-06 0.595477 0
5.06397e-06 0.586719 0
6.57679e-06 0.569204 0
7.58162e-06 0.560446 0
1.00944e-05 0.54293 0
1.15956e-05 0.534172 0
1.51014e-05 0.516657 0
1.70942e-05 0.507899 0
2.15547e-05 0.490383 0
2.40125e-05 0.481625 0
2.93832e-05 0.464109 0
3.22791e-05 0.455351 0
3.84731e-05 0.437835 0
4.17567e-05 0.429077 0
4.86798e-05 0.411561 0
5.22954e-05 0.402804 0
5.97966e-05 0.385288 0
6.36617e-05 0.37653 0
7.15814e-05 0.359014 0
7.56027e-05 0.350256 0
8.37071e-05 0.332741 0
8.77622e-05 0.323983 0
9.58117e-05 0.306468 0
9.97577e-05 0.297711 0
0.000107397 0.280196 0
0.000111046 0.271438 0
0.000117908 0.253924 0
0.000121079 0.245167 0
0.000126783 0.227653 0
0.000129253 0.218896 0
0.000133285 0.201383 0
0.000134789 0.192626 0
0.000136619 0.175113 0
0.000136864 0.166357 0
0.000135837 0.148845 0
0.000134492 0.14009 0
0.000129941 0.122579 0
[...]
CELL_DATA 546
POINT_DATA 2695
VECTORS Y Float64
0 0 0.0
0.0662837 -0.00014412 0.0
0.0740797 1.99273 0.0
0.00732636 1.99782 0.0
0.0221 0 0.0
0.0442 0 0.0
0.00736667 0 0.0
0.014734 -1.64309e-05 0.0
0.0294647 -5.22775e-05 0.0
0.0368455 -5.75462e-05 0.0
0.0515467 -8.24158e-05 0.0
0.058913 -0.000120347 0.0
0.0663487 0.0261707 0.0
0.0663811 0.052462 0.0
0.0664056 0.0787476 0.0
0.0664226 0.105031 0.0
0.0664325 0.131314 0.0
0.0664366 0.157595 0.0
0.0664359 0.183874 0.0
0.0664314 0.210152 0.0
0.066424 0.236429 0.0
0.0664146 0.262705 0.0
0.0664036 0.288981 0.0
0.0663918 0.315255 0.0
0.0663796 0.341528 0.0
0.0663676 0.367801 0.0
0.066356 0.394073 0.0
0.0663452 0.420345 0.0
0.0663353 0.446616 0.0
0.0663266 0.472887 0.0
0.0663192 0.499157 0.0
0.0663133 0.525428 0.0
0.0663088 0.551697 0.0
0.0663057 0.577967 0.0
0.0663042 0.604236 0.0
0.0663042 0.630505 0.0
0.0663056 0.656774 0.0
0.0663084 0.683043 0.0
0.0663125 0.709311 0.0
0.0663179 0.73558 0.0
0.0663243 0.761848 0.0
0.0663317 0.788115 0.0
0.0663399 0.814383 0.0
0.0663487 0.840651 0.0
0.0663579 0.866919 0.0
0.0663671 0.893186 0.0
0.0663761 0.919454 0.0
0.0663844 0.945722 0.0
0.0663915 0.97199 0.0
0.066397 0.998259 0.0
0.0664002 1.02453 0.0
0.0664004 1.0508 0.0
0.0663968 1.07707 0.0
0.0663884 1.10334 0.0
0.0663744 1.12961 0.0
0.0663537 1.15588 0.0
0.0663251 1.18216 0.0
0.0662876 1.20843 0.0
0.06624 1.23471 0.0
0.0661815 1.26098 0.0
0.066111 1.28726 0.0
0.0660279 1.31353 0.0
0.0659319 1.33981 0.0
0.0658231 1.36609 0.0
0.0657024 1.39236 0.0
0.0655704 1.41863 0.0
0.0654291 1.4449 0.0
0.0652812 1.47116 0.0
0.0651303 1.49741 0.0
0.0649812 1.52366 0.0
0.0648396 1.5499 0.0
0.0647126 1.57614 0.0
0.0646082 1.60236 0.0
0.0645356 1.62856 0.0
0.0645053 1.65475 0.0
0.0645285 1.68093 0.0
0.0646174 1.70709 0.0
0.0647847 1.73324 0.0
0.0650438 1.75936 0.0
0.0654082 1.78547 0.0
0.0658916 1.81155 0.0
0.0665071 1.83762 0.0
0.0672673 1.86367 0.0
0.068183 1.8897 0.0
0.0692631 1.91571 0.0
0.0705088 1.9417 0.0
0.0719191 1.96764 0.0
0.0663115 0.00862911 0.0
0.0663334 0.0174013 0.0
0.0663606 0.034936 0.0
0.0663713 0.0436995 0.0
0.0663901 0.0612241 0.0
0.0663983 0.0699859 0.0
0.0664121 0.087509 0.0
0.0664178 0.0962703 0.0
0.0664266 0.113792 0.0
0.0664299 0.122553 0.0
0.0664345 0.140074 0.0
0.0664358 0.148835 0.0
0.0664369 0.166355 0.0
0.0664366 0.175114 0.0
0.0664348 0.192634 0.0
0.0664333 0.201393 0.0
0.0664293 0.218912 0.0
0.0664268 0.227671 0.0
0.0664211 0.245188 0.0
0.0664179 0.253947 0.0
0.066411 0.271464 0.0
0.0664074 0.280222 0.0
0.0663998 0.297739 0.0
0.0663958 0.306497 0.0
0.0663878 0.324013 0.0
0.0663837 0.332771 0.0
0.0663756 0.350286 0.0
0.0663716 0.359044 0.0
0.0663637 0.376559 0.0
0.0663598 0.385316 0.0
0.0663523 0.402831 0.0
0.0663487 0.411588 0.0
0.0663418 0.429102 0.0
0.0663385 0.437859 0.0
0.0663323 0.455373 0.0
0.0663294 0.46413 0.0
0.066324 0.481644 0.0
0.0663215 0.490401 0.0
0.0663171 0.507914 0.0
0.0663151 0.516671 0.0
0.0663116 0.534184 0.0
0.0663101 0.542941 0.0
0.0663076 0.560454 0.0
0.0663066 0.569211 0.0
0.0663051 0.586724 0.0
0.0663046 0.59548 0.0
0.066304 0.612993 0.0
0.066304 0.621749 0.0
0.0663045 0.639262 0.0
0.066305 0.648018 0.0
0.0663064 0.665531 0.0
0.0663073 0.674287 0.0
0.0663096 0.691799 0.0
0.066311 0.700555 0.0
0.0663142 0.718067 0.0
0.0663159 0.726824 0.0
0.0663199 0.744336 0.0
0.066322 0.753092 0.0
0.0663267 0.770604 0.0
0.0663291 0.779359 0.0
0.0663343 0.796871 0.0
0.0663371 0.805627 0.0
0.0663428 0.823139 0.0
0.0663457 0.831895 0.0
0.0663517 0.849407 0.0
0.0663548 0.858163 0.0
0.066361 0.875674 0.0
0.0663641 0.88443 0.0
0.0663702 0.901942 0.0
0.0663731 0.910698 0.0
0.0663789 0.92821 0.0
0.0663817 0.936966 0.0
0.0663869 0.954478 0.0
0.0663893 0.963234 0.0
0.0663936 0.980746 0.0
0.0663954 0.989503 0.0
0.0663984 1.00702 0.0
0.0663995 1.01577 0.0
0.0664007 1.03328 0.0
0.0664007 1.04204 0.0
0.0663997 1.05955 0.0
0.0663985 1.06831 0.0
0.0663946 1.08582 0.0
0.0663918 1.09458 0.0
0.0663845 1.1121 0.0
0.0663798 1.12085 0.0
0.0663683 1.13837 0.0
0.0663614 1.14713 0.0
0.0663451 1.16464 0.0
0.0663356 1.1734 0.0
0.0663136 1.19091 0.0
0.0663011 1.19967 0.0
0.0662729 1.21719 0.0
0.066257 1.22595 0.0
0.0662218 1.24346 0.0
0.0662023 1.25222 0.0
0.0661594 1.26974 0.0
0.0661359 1.2785 0.0
0.0660847 1.29602 0.0
0.066057 1.30478 0.0
0.0659974 1.32229 0.0
0.0659654 1.33105 0.0
0.065897 1.34857 0.0
0.0658608 1.35733 0.0
0.0657842 1.37484 0.0
0.0657439 1.3836 0.0
0.0656596 1.40112 0.0
0.0656156 1.40987 0.0
0.0655242 1.42738 0.0
0.0654771 1.43614 0.0
0.0653804 1.45365 0.0
0.0653311 1.4624 0.0
0.065231 1.47991 0.0
0.0651806 1.48866 0.0
0.0650802 1.50617 0.0
0.0650304 1.51492 0.0
0.0649328 1.53241 0.0
0.0648855 1.54116 0.0
0.0647953 1.55865 0.0
0.0647529 1.56739 0.0
0.0646748 1.58488 0.0
0.0646399 1.59362 0.0
0.06458 1.61109 0.0
0.0645557 1.61983 0.0
0.0645203 1.63729 0.0
0.06451 1.64603 0.0
0.0645066 1.66348 0.0
0.0645142 1.67221 0.0
0.0645502 1.68965 0.0
0.0645797 1.69837 0.0
0.0646638 1.71581 0.0
0.0647194 1.72452 0.0
0.0648602 1.74195 0.0
0.0649464 1.75065 0.0
0.0651529 1.76807 0.0
0.0652742 1.77677 0.0
0.0655555 1.79416 0.0
0.0657164 1.80286 0.0
0.0660814 1.82024 0.0
0.0662864 1.82893 0.0
0.0667438 1.84631 0.0
0.0669971 1.85499 0.0
0.0675547 1.87235 0.0
0.0678598 1.88102 0.0
0.0685244 1.89837 0.0
0.0688844 1.90704 0.0
0.0696602 1.92438 0.0
0.0700755 1.93304 0.0
0.0709589 1.95036 0.0
0.0714269 1.95901 0.0
0.0724074 1.97624 0.0
0.0729925 1.98464 0.0
0.0515996 1.99525 0.0
0.0294064 1.99656 0.0
0.0666426 1.99406 0.0
0.0590851 1.99477 0.0
0.0441855 1.99571 0.0
0.0367878 1.99614 0.0
0.0220389 1.99698 0.0
0.0146802 1.9974 0.0
0.00578933 1.97152 0.0
0.00432087 1.94513 0.0
0.00303499 1.9187 0.0
0.00193369 1.89226 0.0
0.00100341 1.86582 0.0
0.000231907 1.8394 0.0
-0.000392221 1.81298 0.0
-0.000881805 1.78657 0.0
-0.00125059 1.76018 0.0
-0.00151244 1.73381 0.0
-0.0016814 1.70745 0.0
-0.00177106 1.6811 0.0
-0.00179456 1.65477 0.0
-0.00176422 1.62846 0.0
-0.00169153 1.60215 0.0
-0.00158689 1.57586 0.0
-0.00145965 1.54958 0.0
-0.00131793 1.52331 0.0
-0.00116873 1.49705 0.0
-0.00101783 1.47079 0.0
-0.000869938 1.44454 0.0
-0.000728726 1.41829 0.0
-0.00059689 1.39204 0.0
-0.000476234 1.3658 0.0
-0.000367553 1.33955 0.0
-0.000271694 1.31331 0.0
-0.000188729 1.28706 0.0
-0.000118328 1.26082 0.0
-5.98506e-05 1.23457 0.0
-1.23435e-05 1.20832 0.0
2.51456e-05 1.18207 0.0
5.3711e-05 1.15582 0.0
7.44462e-05 1.12956 0.0
8.84614e-05 1.10331 0.0
9.67837e-05 1.07705 0.0
0.000100412 1.05079 0.0
0.00010022 1.02453 0.0
9.70306e-05 0.998268 0.0
9.15282e-05 0.972005 0.0
8.43635e-05 0.94574 0.0
7.60729e-05 0.919475 0.0
6.71301e-05 0.893208 0.0
5.78854e-05 0.866941 0.0
4.87058e-05 0.840673 0.0
3.98886e-05 0.814404 0.0
3.16778e-05 0.788135 0.0
2.42837e-05 0.761865 0.0
1.78475e-05 0.735594 0.0
1.25249e-05 0.709323 0.0
8.42018e-06 0.683051 0.0
5.61704e-06 0.656779 0.0
4.19915e-06 0.630507 0.0
4.22687e-06 0.604234 0.0
5.73629e-06 0.577961 0.0
8.75533e-06 0.551688 0.0
1.32667e-05 0.525415 0.0
1.9247e-05 0.499141 0.0
2.66249e-05 0.472867 0.0
3.53116e-05 0.446593 0.0
4.51631e-05 0.420319 0.0
5.60046e-05 0.394046 0.0
6.75958e-05 0.367772 0.0
7.96496e-05 0.341499 0.0
9.18055e-05 0.315226 0.0
0.000103629 0.288953 0.0
0.000114557 0.262681 0.0
0.000124048 0.23641 0.0
0.00013143 0.210139 0.0
0.000135914 0.18387 0.0
0.000136616 0.157601 0.0
0.000132543 0.131334 0.0
0.000122595 0.105068 0.0
0.000105492 0.0788038 0.0
7.95468e-05 0.052541 0.0
4.30655e-05 0.026278 0.0
0.00681847 1.98906 0.0
0.00630431 1.9803 0.0
0.00528281 1.96274 0.0
0.00479209 1.95394 0.0
0.00387108 1.93632 0.0
0.00344251 1.92751 0.0
0.00264804 1.90988 0.0
0.00228109 1.90107 0.0
0.00160524 1.88345 0.0
0.00129528 1.87463 0.0
0.000729142 1.85701 0.0
0.000472112 1.8482 0.0
8.08909e-06 1.83059 0.0
-0.000199796 1.82178 0.0
-0.000569693 1.80418 0.0
-0.000732723 1.79537 0.0
-0.00101746 1.77777 0.0
-0.00114022 1.76898 0.0
-0.00134907 1.75139 0.0
-0.00143619 1.7426 0.0
-0.00157836 1.72502 0.0
-0.00163452 1.71623 0.0
-0.00171947 1.69866 0.0
-0.0017492 1.68988 0.0
-0.00178556 1.67232 0.0
-0.00179325 1.66355 0.0
-0.00178988 1.646 0.0
-0.00177963 1.63723 0.0
-0.0017441 1.61969 0.0
-0.00171975 1.61092 0.0
-0.00165976 1.59339 0.0
-0.00162477 1.58462 0.0
-0.0015465 1.5671 0.0
-0.00150399 1.55834 0.0
-0.00141369 1.54082 0.0
-0.00136637 1.53207 0.0
-0.00126866 1.51456 0.0
-0.00121886 1.5058 0.0
-0.0011184 1.48829 0.0
-0.00106804 1.47954 0.0
-0.000967945 1.46204 0.0
-0.000918611 1.45329 0.0
-0.000822 1.43579 0.0
-0.000774898 1.42704 0.0
-0.000683601 1.40954 0.0
-0.00063964 1.40079 0.0
-0.000555381 1.38329 0.0
-0.000515152 1.37455 0.0
-0.000438623 1.35705 0.0
-0.000402395 1.3483 0.0
-0.000334138 1.33081 0.0
-0.000302191 1.32206 0.0
-0.000242625 1.30456 0.0
-0.000214976 1.29581 0.0
-0.000163879 1.27832 0.0
-0.000140427 1.26957 0.0
-9.75541e-05 1.25207 0.0
-7.80765e-05 1.24332 0.0
-4.28375e-05 1.22582 0.0
-2.70192e-05 1.21707 0.0
1.21882e-06 1.19957 0.0
1.36952e-05 1.19082 0.0
3.56061e-05 1.17332 0.0
4.51124e-05 1.16457 0.0
6.14382e-05 1.14707 0.0
6.83301e-05 1.13832 0.0
7.98162e-05 1.12081 0.0
8.44731e-05 1.11206 0.0
9.18156e-05 1.09456 0.0
9.45716e-05 1.0858 0.0
9.84744e-05 1.0683 0.0
9.96709e-05 1.05954 0.0
0.000100728 1.04204 0.0
0.000100648 1.03328 0.0
9.94586e-05 1.01578 0.0
9.83849e-05 1.00702 0.0
9.54182e-05 0.989514 0.0
9.35712e-05 0.980759 0.0
8.93006e-05 0.96325 0.0
8.6903e-05 0.954495 0.0
8.16977e-05 0.936985 0.0
7.89234e-05 0.92823 0.0
7.31492e-05 0.910719 0.0
7.01593e-05 0.901964 0.0
6.40643e-05 0.884453 0.0
6.09751e-05 0.875697 0.0
5.48028e-05 0.858185 0.0
5.1735e-05 0.849429 0.0
4.57165e-05 0.831917 0.0
4.27717e-05 0.823161 0.0
3.70723e-05 0.805648 0.0
3.43284e-05 0.796891 0.0
2.91173e-05 0.779378 0.0
2.6647e-05 0.770621 0.0
2.20252e-05 0.753108 0.0
1.98748e-05 0.744351 0.0
1.5945e-05 0.726837 0.0
1.41653e-05 0.71808 0.0
1.10189e-05 0.700566 0.0
9.64593e-06 0.691809 0.0
7.33789e-06 0.674294 0.0
6.39978e-06 0.665537 0.0
4.98837e-06 0.648022 0.0
4.51153e-06 0.639265 0.0
4.04717e-06 0.62175 0.0
4.05388e-06 0.612992 0.0
4.56427e-06 0.595477 0.0
5.06397e-06 0.586719 0.0
6.57679e-06 0.569204 0.0
7.58162e-06 0.560446 0.0
1.00944e-05 0.54293 0.0
1.15956e-05 0.534172 0.0
1.51014e-05 0.516657 0.0
1.70942e-05 0.507899 0.0
2.15547e-05 0.490383 0.0
2.40125e-05 0.481625 0.0
2.93832e-05 0.464109 0.0
3.22791e-05 0.455351 0.0
3.84731e-05 0.437835 0.0
4.17567e-05 0.429077 0.0
4.86798e-05 0.411561 0.0
5.22954e-05 0.402804 0.0
5.97966e-05 0.385288 0.0
6.36617e-05 0.37653 0.0
7.15814e-05 0.359014 0.0
7.56027e-05 0.350256 0.0
8.37071e-05 0.332741 0.0
8.77622e-05 0.323983 0.0
9.58117e-05 0.306468 0.0
9.97577e-05 0.297711 0.0
0.000107397 0.280196 0.0
0.000111046 0.271438 0.0
0.000117908 0.253924 0.0
0.000121079 0.245167 0.0
0.000126783 0.227653 0.0
0.000129253 0.218896 0.0
0.000133285 0.201383 0.0
0.000134789 0.192626 0.0
0.000136619 0.175113 0.0
0.000136864 0.166357 0.0
0.000135837 0.148845 0.0
0.000134492 0.14009 0.0
0.000129941 0.122579 0.0
0.00012664 0.113823 0.0
0.000117757 0.0963132 0.0
0.000112076 0.0875584 0.0
9.79285e-05 0.0700494 0.0
8.93031e-05 0.0612951 0.0
6.85683e-05 0.0437868 0.0
5.63743e-05 0.0350326 0.0
2.79318e-05 0.0175234 0.0
1.19913e-05 0.00876528 0.0
0.0386342 1.96516 0.0
0.0332266 0.0307319 0.0
0.0332445 0.985131 0.0
0.0332507 1.03766 0.0
0.0332433 1.09019 0.0
0.0332303 0.932598 0.0
0.033215 1.14272 0.0
0.0322804 0.850332 0.0
0.0331575 1.19525 0.0
0.0331857 0.801259 0.0
0.0336632 0.719695 0.0
0.0339101 1.2775 0.0
0.0322329 0.640177 0.0
0.0328317 1.32655 0.0
0.0331608 0.538557 0.0
0.0331728 0.486013 0.0
0.0322062 1.45785 0.0
0.0332357 0.328377 0.0
0.0323491 0.246091 0.0
0.0314173 1.61538 0.0
0.0332853 0.144461 0.0
0.0315413 1.7204 0.0
0.0313595 1.66789 0.0
0.0330422 1.82539 0.0
0.034615 1.90639 0.0
0.033265 0.0919126 0.0
0.0320658 1.7729 0.0
0.031624 1.56287 0.0
0.0319055 1.51036 0.0
0.0332841 0.197009 0.0
0.0333922 1.4088 0.0
0.0332117 0.380923 0.0
0.0331901 0.433468 0.0
0.0331548 0.5911 0.0
0.0334701 0.889104 0.0
0.0328273 1.23873 0.0
0.0334276 0.757762 0.0
0.0334123 0.678953 0.0
0.0324009 1.37003 0.0
0.0335098 0.284873 0.0
0.0340145 1.86884 0.0
0.0410654 1.93397 0.0
0.0373635 0.0617619 0.0
0.0234215 1.0114 0.0
0.0430656 0.958862 0.0
0.0234217 1.06392 0.0
0.0234048 1.11645 0.0
0.0447847 0.827076 0.0
0.023363 1.16897 0.0
0.0213292 1.3007 0.0
0.0429935 0.512287 0.0
0.0423161 1.79895 0.0
0.0219271 1.74675 0.0
0.021537 1.64163 0.0
0.0215869 1.69418 0.0
0.0451492 0.122561 0.0
0.0448688 0.222838 0.0
0.0222289 1.48405 0.0
0.0431143 0.170735 0.0
0.0216797 1.58909 0.0
0.0430083 0.459744 0.0
0.0207583 1.43198 0.0
0.0447446 0.616923 0.0
0.043051 0.354654 0.0
0.021932 1.53657 0.0
0.0429845 0.56483 0.0
0.0430279 0.4072 0.0
0.0212167 0.912316 0.0
0.0211726 0.780976 0.0
0.0212985 0.701553 0.0
0.0451327 1.21555 0.0
0.0447607 1.34688 0.0
0.045565 1.84531 0.0
0.0212381 0.308082 0.0
0.0457698 0.911409 0.0
0.0457257 0.780069 0.0
0.0205778 1.2164 0.0
0.0457403 0.700751 0.0
0.0202039 1.34768 0.0
0.0457919 0.307192 0.0
0.0210474 1.84691 0.0
0.0453085 1.53668 0.0
0.0449634 1.69409 0.0
0.0449138 1.64164 0.0
0.0196512 0.40719 0.0
0.0450563 1.58917 0.0
0.0459805 1.43215 0.0
0.0456053 1.48418 0.0
0.0453023 1.7465 0.0
0.0190075 0.118193 0.0
0.0465517 1.30083 0.0
0.0196743 0.354644 0.0
0.0197375 0.170735 0.0
0.019646 0.222786 0.0
0.0196315 0.459737 0.0
0.0196077 0.564827 0.0
0.0467398 1.169 0.0
0.0195219 0.616877 0.0
0.0467815 1.11646 0.0
0.0467984 1.06393 0.0
0.0196168 0.512282 0.0
0.0195619 0.827039 0.0
0.0196888 0.958868 0.0
0.0189441 1.7994 0.0
0.0467983 1.0114 0.0
0.0173124 0.0704496 0.0
0.0205262 1.92682 0.0
0.045716 0.870589 0.0
0.0205336 1.25721 0.0
0.0456755 0.739248 0.0
0.0456628 0.66044 0.0
0.04577 0.266362 0.0
0.0200635 1.38848 0.0
0.0460372 1.88887 0.0
0.0223732 1.88801 0.0
0.0450769 1.3886 0.0
0.0207563 0.266353 0.0
0.0455472 1.25727 0.0
0.0206491 0.660442 0.0
0.0206618 0.739253 0.0
0.0207023 0.870598 0.0
0.048152 0.0190492 0.0
0.0243651 1.97766 0.0
0.054221 1.9759 0.0
0.0182146 0.019096 0.0
0.0205312 0.0446992 0.0
0.0251617 1.95194 0.0
0.0470051 0.042832 0.0
0.0516782 1.9523 0.0
0.0499803 1.91691 0.0
0.0488789 0.0783153 0.0
0.0140644 1.03766 0.0
0.0524308 0.985127 0.0
0.014057 1.09018 0.0
0.0524166 0.932592 0.0
0.0140287 1.1427 0.0
0.0139713 1.19522 0.0
0.052372 0.801254 0.0
0.0136456 1.32648 0.0
0.0523471 0.53856 0.0
0.0523591 0.486018 0.0
0.0139685 0.591099 0.0
0.0130202 1.45774 0.0
0.0524221 0.328385 0.0
0.0140038 0.433461 0.0
0.0140254 0.380915 0.0
0.0122311 1.61534 0.0
0.0510917 1.51046 0.0
0.0508102 1.56296 0.0
0.0524716 0.144457 0.0
0.0123557 1.72053 0.0
0.0140978 0.197007 0.0
0.0121734 1.66792 0.0
0.0505458 1.66786 0.0
0.0139643 0.0928853 0.0
0.0512498 1.77262 0.0
0.0522224 1.82492 0.0
0.0507271 1.72026 0.0
0.012438 1.56279 0.0
0.0128818 1.77318 0.0
0.0138618 1.82585 0.0
0.0127196 1.51026 0.0
0.0506036 1.61542 0.0
0.0524704 0.197011 0.0
0.0140989 0.144465 0.0
0.052398 0.380931 0.0
0.0523764 0.433475 0.0
0.0140494 0.328368 0.0
0.0513923 1.45795 0.0
0.0523411 0.591101 0.0
0.0139865 0.486008 0.0
0.0520179 1.32662 0.0
0.0139745 0.538554 0.0
0.0523438 1.19527 0.0
0.0524013 1.14274 0.0
0.0139994 0.801265 0.0
0.0140582 0.985134 0.0
0.0524296 1.0902 0.0
0.0524371 1.03766 0.0
0.014044 0.932603 0.0
0.0510975 0.851113 0.0
0.0150955 1.27666 0.0
0.0519841 0.721525 0.0
0.0510498 0.640964 0.0
0.0511656 0.246885 0.0
0.0145796 1.40792 0.0
0.0167278 1.90597 0.0
0.0145984 0.246864 0.0
0.0511464 1.40811 0.0
0.0516627 1.27677 0.0
0.0144825 0.640957 0.0
0.0151306 0.721084 0.0
0.0145302 0.851117 0.0
0.0331757 0.0133048 0.0
0.0396697 1.98258 0.0
0.0443178 0.0962843 0.0
0.0553703 0.100657 0.0
0.0593318 0.110875 0.0
0.0522406 0.116719 0.0
0.0411888 0.112344 0.0
0.0372275 0.102128 0.0
0.0482797 0.106501 0.0
0.0384699 0.0873807 0.0
0.0436745 0.0828483 0.0
0.0547277 0.0872196 0.0
0.0605755 0.0961249 0.0
0.0495228 0.0917522 0.0
0.0561821 1.86538 0.0
0.0450979 1.86711 0.0
0.0378508 1.86098 0.0
0.0417011 1.85314 0.0
0.0527907 1.85145 0.0
0.0600247 1.85757 0.0
0.0489374 1.85927 0.0
0.011239 0.287593 0.0
0.0223744 0.286233 0.0
0.0294193 0.292609 0.0
0.0253287 0.300345 0.0
0.0141933 0.301705 0.0
0.00714849 0.295329 0.0
0.0182839 0.293969 0.0
0.0546824 1.3674 0.0
0.0435417 1.36872 0.0
0.0365219 1.36232 0.0
0.0406418 1.3546 0.0
0.0517822 1.35328 0.0
0.058803 1.35968 0.0
0.0476625 1.361 0.0
0.0551025 1.23605 0.0
0.0439649 1.23739 0.0
0.03693 1.231 0.0
0.0410318 1.22328 0.0
0.0521691 1.22193 0.0
0.0592049 1.22832 0.0
0.0480674 1.22966 0.0
0.011143 0.681685 0.0
0.0222777 0.680319 0.0
0.0293743 0.686486 0.0
0.0253363 0.69402 0.0
0.0142017 0.695386 0.0
0.00710503 0.689219 0.0
0.0182396 0.687853 0.0
0.0111587 0.760497 0.0
0.0222932 0.75913 0.0
0.0293425 0.7655 0.0
0.0252575 0.773238 0.0
0.0141231 0.774606 0.0
0.00707366 0.768235 0.0
0.0182081 0.766868 0.0
0.0112015 0.89184 0.0
0.0223358 0.890472 0.0
0.0293857 0.896841 0.0
0.0253012 0.904579 0.0
0.0141669 0.905947 0.0
0.00711701 0.899578 0.0
0.0182513 0.898209 0.0
0.00694555 0.885671 0.0
0.0138239 0.878135 0.0
0.0249583 0.876766 0.0
0.0292142 0.882935 0.0
0.0180799 0.884303 0.0
0.00690339 0.754327 0.0
0.0137826 0.74679 0.0
0.0249171 0.745423 0.0
0.0291723 0.751593 0.0
0.0180378 0.75296 0.0
0.0593433 1.24223 0.0
0.0524457 1.24975 0.0
0.0413079 1.25109 0.0
0.0370679 1.24491 0.0
0.0482056 1.24357 0.0
0.00688853 0.675515 0.0
0.0137688 0.667978 0.0
0.0249034 0.666612 0.0
0.0291578 0.672783 0.0
0.0180232 0.674149 0.0
0.0589087 1.37359 0.0
0.0519933 1.38109 0.0
0.0408522 1.38241 0.0
0.0366269 1.37622 0.0
0.0477678 1.37491 0.0
0.0554015 0.891826 0.0
0.0444358 0.890465 0.0
0.0375521 0.882932 0.0
0.0416341 0.876761 0.0
0.0525997 0.878122 0.0
0.0594834 0.885654 0.0
0.0485178 0.884293 0.0
0.0109026 1.23596 0.0
0.0218649 1.23734 0.0
0.02873 1.24489 0.0
0.0246321 1.25105 0.0
0.0136701 1.24966 0.0
0.00680558 1.24211 0.0
0.0177678 1.2435 0.0
0.0553587 0.760486 0.0
0.0443932 0.759124 0.0
0.0375102 0.751591 0.0
0.0415928 0.745419 0.0
0.0525584 0.746781 0.0
0.0594413 0.754315 0.0
0.0484757 0.752953 0.0
0.055343 0.68168 0.0
0.0443777 0.680317 0.0
0.0374957 0.672782 0.0
0.0415792 0.666611 0.0
0.0525445 0.667974 0.0
0.0594264 0.675509 0.0
0.0484611 0.674145 0.0
0.00698793 0.28142 0.0
0.0138721 0.273887 0.0
0.0250075 0.272526 0.0
0.0292587 0.278699 0.0
0.0181233 0.28006 0.0
0.0104829 1.36721 0.0
0.0214419 1.36862 0.0
0.0282891 1.37618 0.0
0.0241766 1.38233 0.0
0.0132179 1.38092 0.0
0.00637133 1.37336 0.0
0.0173302 1.37477 0.0
0.055439 0.287611 0.0
0.0444744 0.286242 0.0
0.0375966 0.278703 0.0
0.0416833 0.272533 0.0
0.0526479 0.273902 0.0
0.0595258 0.281441 0.0
0.0485612 0.280072 0.0
0.012007 1.86684 0.0
0.0230107 1.86784 0.0
0.0301244 1.87522 0.0
0.026244 1.88161 0.0
0.0152372 1.88064 0.0
0.00811393 1.87325 0.0
0.0191192 1.87424 0.0
0.0601739 1.87204 0.0
0.0530971 1.88044 0.0
0.0420191 1.88221 0.0
0.0380115 1.87553 0.0
0.0490923 1.87378 0.0
0.053419 1.88915 0.0
0.0608009 1.88942 0.0
0.0620949 1.89874 0.0
0.0560272 1.90781 0.0
0.0486443 1.90757 0.0
0.04733 1.89822 0.0
0.0547124 1.89848 0.0
0.0595014 0.899261 0.0
0.0526356 0.905335 0.0
0.0416699 0.903974 0.0
0.03757 0.896539 0.0
0.0485357 0.8979 0.0
0.00681994 1.22852 0.0
0.0136991 1.22246 0.0
0.0246618 1.22385 0.0
0.028745 1.23129 0.0
0.0177825 1.2299 0.0
0.059458 0.767921 0.0
0.0525918 0.773995 0.0
0.0416263 0.772634 0.0
0.0375269 0.765198 0.0
0.0484925 0.76656 0.0
0.0594523 0.688946 0.0
0.0525962 0.694848 0.0
0.0416308 0.693485 0.0
0.0375215 0.686219 0.0
0.0484869 0.687583 0.0
0.0064178 1.35976 0.0
0.0133112 1.35372 0.0
0.0242706 1.35513 0.0
0.0283362 1.36258 0.0
0.017377 1.36117 0.0
0.0595331 0.295051 0.0
0.0526625 0.301122 0.0
0.0416979 0.299752 0.0
0.0376039 0.292312 0.0
0.0485685 0.293682 0.0
0.00767595 1.8595 0.0
0.0143573 1.8532 0.0
0.0253578 1.85424 0.0
0.0296801 1.86155 0.0
0.018678 1.86053 0.0
0.0606914 1.93914 0.0
0.0508774 1.93656 0.0
0.0440282 1.92827 0.0
0.047 1.92259 0.0
0.0568067 1.9252 0.0
0.0636495 1.93347 0.0
0.0538377 1.93088 0.0
0.0470362 0.0586625 0.0
0.0567087 0.0555624 0.0
0.0605479 0.0610811 0.0
0.0547138 0.0696988 0.0
0.0450408 0.072797 0.0
0.0412024 0.0672792 0.0
0.0508752 0.0641804 0.0
0.0628352 1.91611 0.0