# vtk DataFile Version 2.0
FEM, Created by Wutzow
ASCII
DATASET UNSTRUCTURED_GRID
POINTS 946 Float64
0 0 0
1.00088 -3.64578e-05 0
1.00088 0.500038 0
0 0.5 0
0.0714965 -2.00112e-08 0
0.142993 -1.8687e-08 0
0.21449 3.00356e-08 0
0.285986 1.7521e-07 0
0.357483 5.0736e-07 0
0.42898 1.17152e-06 0
0.500476 2.36455e-06 0
0.571972 4.28248e-06 0
0.643466 6.9427e-06 0
0.714957 9.73999e-06 0
0.786442 1.05301e-05 0
0.857919 4.21964e-06 0
0.929386 -1.75706e-05 0
0.0238322 -6.85352e-09 0
0.0476643 -1.41359e-08 0
0.0953287 -2.31095e-08 0
0.119161 -2.29338e-08 0
0.166825 -9.51608e-09 0
0.190657 6.14142e-09 0
0.238322 6.40499e-08 0
0.262154 1.11409e-07 0
0.309819 2.58806e-07 0
0.333651 3.67927e-07 0
0.381315 6.82338e-07 0
0.405148 9.01686e-07 0
0.452812 1.49867e-06 0
0.476644 1.89462e-06 0
0.524308 2.91454e-06 0
0.54814 3.55471e-06 0
0.595804 5.09604e-06 0
0.619635 5.99157e-06 0
0.667297 7.92237e-06 0
0.691127 8.88201e-06 0
0.738786 1.04084e-05 0
0.762615 1.07329e-05 0
0.810269 9.59165e-06 0
0.834094 7.58552e-06 0
0.881742 -8.91989e-07 0
0.905564 -8.12883e-06 0
0.953211 -3.08708e-05 0
0.97704 -4.08566e-05 0
1.00089 0.0713698 0
1.00097 0.142805 0
1.00106 0.214251 0
1.00106 0.285752 0
1.00097 0.357196 0
1.00089 0.428631 0
1.00086 0.0237655 0
1.00087 0.0475667 0
1.00092 0.095179 0
1.00094 0.11899 0
1.00098 0.166615 0
1.001 0.190426 0
1.00106 0.238084 0
1.00106 0.261916 0
1.001 0.309572 0
1.00098 0.333384 0
1.00094 0.38101 0
1.00092 0.404821 0
1.00087 0.452433 0
1.00086 0.476233 0
0.929386 0.500018 0
0.857919 0.499996 0
0.786442 0.499989 0
0.714957 0.49999 0
0.643466 0.499993 0
0.571972 0.499996 0
0.500476 0.499998 0
0.42898 0.499999 0
0.357483 0.499999 0
0.285986 0.5 0
0.21449 0.5 0
0.142993 0.5 0
0.0714965 0.5 0
0.977041 0.50004 0
0.953211 0.500031 0
0.905564 0.500008 0
0.881742 0.500001 0
0.834094 0.499992 0
0.810269 0.49999 0
0.762615 0.499989 0
0.738786 0.49999 0
0.691127 0.499991 0
0.667297 0.499992 0
0.619635 0.499994 0
0.595804 0.499995 0
0.54814 0.499996 0
0.524308 0.499997 0
0.476644 0.499998 0
0.452812 0.499998 0
0.405148 0.499999 0
0.381315 0.499999 0
0.333651 0.5 0
0.309819 0.5 0
0.262154 0.5 0
0.238322 0.5 0
0.190657 0.5 0
0.166825 0.5 0
0.119161 0.5 0
0.0953287 0.5 0
0.0476643 0.5 0
0.0238322 0.5 0
0 0.428571 0
0 0.357143 0
0 0.285714 0
0 0.214286 0
0 0.142857 0
0 0.0714286 0
0 0.47619 0
0 0.452381 0
0 0.404762 0
0 0.380952 0
0 0.333333 0
0 0.309524 0
0 0.261905 0
0 0.238095 0
0 0.190476 0
0 0.166667 0
0 0.119048 0
0 0.0952381 0
0 0.047619 0
0 0.0238095 0
0.0714965 0.0714286 0
0.0714965 0.142857 0
0.0714965 0.214286 0
0.0714965 0.285714 0
0.0714965 0.357143 0
0.0714965 0.428571 0
0.142993 0.0714286 0
0.142993 0.142857 0
0.142993 0.214286 0
0.142993 0.285714 0
0.142993 0.357143 0
0.142993 0.428571 0
0.21449 0.0714286 0
0.214489 0.142857 0
0.214489 0.214286 0
0.214489 0.285714 0
0.214489 0.357143 0
0.21449 0.428571 0
0.285986 0.0714287 0
0.285986 0.142857 0
0.285986 0.214286 0
0.285986 0.285714 0
0.285986 0.357143 0
0.285986 0.428571 0
0.357483 0.0714291 0
0.357482 0.142858 0
0.357482 0.214286 0
0.357482 0.285714 0
0.357482 0.357142 0
0.357483 0.428571 0
0.428979 0.0714297 0
0.428979 0.142858 0
0.428979 0.214286 0
0.428979 0.285714 0
0.428979 0.357142 0
0.428979 0.42857 0
0.500475 0.0714308 0
0.500475 0.142859 0
0.500476 0.214286 0
0.500476 0.285714 0
0.500475 0.357141 0
0.500475 0.428569 0
0.571971 0.0714327 0
0.571972 0.14286 0
0.571973 0.214287 0
0.571973 0.285713 0
0.571972 0.35714 0
0.571971 0.428567 0
0.643466 0.0714352 0
0.643469 0.142862 0
0.643472 0.214288 0
0.643472 0.285712 0
0.643469 0.357138 0
0.643466 0.428565 0
0.71496 0.0714379 0
0.714967 0.142864 0
0.714973 0.214288 0
0.714973 0.285712 0
0.714967 0.357136 0
0.71496 0.428562 0
0.786451 0.0714388 0
0.786466 0.142865 0
0.786477 0.214289 0
0.786477 0.285711 0
0.786466 0.357135 0
0.786451 0.428561 0
0.857938 0.0714332 0
0.857966 0.142862 0
0.857988 0.214288 0
0.857988 0.285712 0
0.857966 0.357138 0
0.857938 0.428567 0
0.92942 0.0714134 0
0.929465 0.142848 0
0.92951 0.214284 0
0.92951 0.285716 0
0.929465 0.357153 0
0.92942 0.428587 0
0.0714965 0.0238095 0
0.0714965 0.047619 0
0.0476644 0.047619 0
0.0238322 0.0238095 0
0.0476644 0.0238095 0
0.0476643 0.0714286 0
0.0238322 0.0714286 0
0.0238322 0.047619 0
0.0714965 0.0952381 0
0.0714965 0.119048 0
0.0476643 0.119048 0
0.0238322 0.0952381 0
0.0476643 0.0952381 0
0.0476643 0.142857 0
0.0238322 0.142857 0
0.0238322 0.119048 0
0.0714965 0.166667 0
0.0714965 0.190476 0
0.0476643 0.190476 0
0.0238322 0.166667 0
0.0476643 0.166667 0
0.0476643 0.214286 0
0.0238322 0.214286 0
0.0238322 0.190476 0
0.0714965 0.238095 0
0.0714965 0.261905 0
0.0476643 0.261905 0
0.0238322 0.238095 0
0.0476643 0.238095 0
0.0476643 0.285714 0
0.0238322 0.285714 0
0.0238322 0.261905 0
0.0714965 0.309524 0
0.0714965 0.333333 0
0.0476643 0.333333 0
0.0238322 0.309524 0
0.0476643 0.309524 0
0.0476643 0.357143 0
0.0238322 0.357143 0
0.0238322 0.333333 0
0.0714965 0.380952 0
0.0714965 0.404762 0
0.0476643 0.404762 0
0.0238322 0.380952 0
0.0476643 0.380952 0
0.0476643 0.428571 0
0.0238322 0.428571 0
0.0238322 0.404762 0
0.0714965 0.452381 0
0.0714965 0.47619 0
0.0476644 0.47619 0
0.0238322 0.452381 0
0.0476644 0.452381 0
0.0238322 0.47619 0
0.142993 0.0238095 0
0.142993 0.047619 0
0.119161 0.047619 0
0.0953287 0.0238095 0
0.119161 0.0238095 0
0.119161 0.0714285 0
0.0953287 0.0714285 0
0.0953287 0.047619 0
0.142993 0.0952381 0
0.142993 0.119048 0
0.119161 0.119048 0
0.0953287 0.0952381 0
0.119161 0.0952381 0
0.119161 0.142857 0
0.0953287 0.142857 0
0.0953287 0.119048 0
0.142993 0.166667 0
0.142993 0.190476 0
0.119161 0.190476 0
0.0953286 0.166667 0
0.119161 0.166667 0
0.119161 0.214286 0
0.0953286 0.214286 0
0.0953286 0.190476 0
0.142993 0.238095 0
0.142993 0.261905 0
0.119161 0.261905 0
0.0953286 0.238095 0
0.119161 0.238095 0
0.119161 0.285714 0
0.0953286 0.285714 0
0.0953286 0.261905 0
0.142993 0.309524 0
0.142993 0.333333 0
0.119161 0.333333 0
0.0953286 0.309524 0
0.119161 0.309524 0
0.119161 0.357143 0
0.0953287 0.357143 0
0.0953286 0.333333 0
0.142993 0.380952 0
0.142993 0.404762 0
0.119161 0.404762 0
0.0953287 0.380952 0
0.119161 0.380952 0
0.119161 0.428571 0
0.0953287 0.428571 0
0.0953287 0.404762 0
0.142993 0.452381 0
0.142993 0.47619 0
0.119161 0.47619 0
0.0953287 0.452381 0
0.119161 0.452381 0
0.0953287 0.47619 0
0.21449 0.0238096 0
0.21449 0.0476191 0
0.190657 0.0476191 0
0.166825 0.0238095 0
0.190657 0.0238095 0
0.190657 0.0714286 0
0.166825 0.0714286 0
0.166825 0.047619 0
0.21449 0.0952381 0
0.214489 0.119048 0
0.190657 0.119048 0
0.166825 0.0952381 0
0.190657 0.0952381 0
0.190657 0.142857 0
0.166825 0.142857 0
0.166825 0.119048 0
0.214489 0.166667 0
0.214489 0.190476 0
0.190657 0.190476 0
0.166825 0.166667 0
0.190657 0.166667 0
0.190657 0.214286 0
0.166825 0.214286 0
0.166825 0.190476 0
0.214489 0.238095 0
0.214489 0.261905 0
0.190657 0.261905 0
0.166825 0.238095 0
0.190657 0.238095 0
0.190657 0.285714 0
0.166825 0.285714 0
0.166825 0.261905 0
0.214489 0.309524 0
0.214489 0.333333 0
0.190657 0.333333 0
0.166825 0.309524 0
0.190657 0.309524 0
0.190657 0.357143 0
0.166825 0.357143 0
0.166825 0.333333 0
0.214489 0.380952 0
0.21449 0.404762 0
0.190657 0.404762 0
0.166825 0.380952 0
0.190657 0.380952 0
0.190657 0.428571 0
0.166825 0.428571 0
0.166825 0.404762 0
0.21449 0.452381 0
0.21449 0.47619 0
0.190657 0.47619 0
0.166825 0.452381 0
0.190657 0.452381 0
0.166825 0.47619 0
0.285986 0.0238097 0
0.285986 0.0476192 0
0.262154 0.0476192 0
0.238322 0.0238096 0
0.262154 0.0238096 0
0.262154 0.0714287 0
0.238322 0.0714286 0
0.238322 0.0476191 0
0.285986 0.0952383 0
0.285986 0.119048 0
0.262154 0.119048 0
0.238322 0.0952382 0
0.262154 0.0952382 0
0.262154 0.142857 0
0.238322 0.142857 0
0.238322 0.119048 0
0.285986 0.166667 0
0.285986 0.190476 0
0.262154 0.190476 0
0.238322 0.166667 0
0.262154 0.166667 0
0.262154 0.214286 0
0.238322 0.214286 0
0.238322 0.190476 0
0.285986 0.238095 0
0.285986 0.261905 0
0.262154 0.261905 0
0.238322 0.238095 0
0.262154 0.238095 0
0.262154 0.285714 0
0.238322 0.285714 0
0.238322 0.261905 0
0.285986 0.309524 0
0.285986 0.333333 0
0.262154 0.333333 0
0.238322 0.309524 0
0.262154 0.309524 0
0.262154 0.357143 0
0.238322 0.357143 0
0.238322 0.333333 0
0.285986 0.380952 0
0.285986 0.404762 0
0.262154 0.404762 0
0.238322 0.380952 0
0.262154 0.380952 0
0.262154 0.428571 0
0.238322 0.428571 0
0.238322 0.404762 0
0.285986 0.452381 0
0.285986 0.47619 0
0.262154 0.47619 0
0.238322 0.452381 0
0.262154 0.452381 0
0.238322 0.47619 0
0.357483 0.02381 0
0.357483 0.0476195 0
0.333651 0.0476194 0
0.309818 0.0238098 0
0.333651 0.0238099 0
0.33365 0.0714289 0
0.309818 0.0714288 0
0.309818 0.0476193 0
0.357483 0.0952386 0
0.357482 0.119048 0
0.33365 0.119048 0
0.309818 0.0952383 0
0.33365 0.0952384 0
0.33365 0.142857 0
0.309818 0.142857 0
0.309818 0.119048 0
0.357482 0.166667 0
0.357482 0.190476 0
0.33365 0.190476 0
0.309818 0.166667 0
0.33365 0.166667 0
0.33365 0.214286 0
0.309818 0.214286 0
0.309818 0.190476 0
0.357482 0.238095 0
0.357482 0.261905 0
0.33365 0.261905 0
0.309818 0.238095 0
0.33365 0.238095 0
0.33365 0.285714 0
0.309818 0.285714 0
0.309818 0.261905 0
0.357482 0.309524 0
0.357482 0.333333 0
0.33365 0.333333 0
0.309818 0.309524 0
0.33365 0.309524 0
0.33365 0.357143 0
0.309818 0.357143 0
0.309818 0.333333 0
0.357482 0.380952 0
0.357483 0.404761 0
0.33365 0.404762 0
0.309818 0.380952 0
0.33365 0.380952 0
0.33365 0.428571 0
0.309818 0.428571 0
0.309818 0.404762 0
0.357483 0.45238 0
0.357483 0.47619 0
0.333651 0.47619 0
0.309818 0.452381 0
0.333651 0.452381 0
0.309818 0.47619 0
0.428979 0.0238107 0
0.428979 0.0476202 0
0.405147 0.0476199 0
0.381315 0.0238102 0
0.405147 0.0238104 0
0.405147 0.0714294 0
0.381315 0.0714292 0
0.381315 0.0476197 0
0.428979 0.0952392 0
0.428979 0.119049 0
0.405147 0.119048 0
0.381315 0.0952387 0
0.405147 0.0952389 0
0.405147 0.142858 0
0.381315 0.142858 0
0.381315 0.119048 0
0.428979 0.166667 0
0.428979 0.190477 0
0.405147 0.190477 0
0.381315 0.166667 0
0.405147 0.166667 0
0.405147 0.214286 0
[...]
CELL_DATA 196
POINT_DATA 946
VECTORS Y Float64
0 0 0.0
1.00088 -3.64578e-05 0.0
1.00088 0.500038 0.0
0 0.5 0.0
0.0714965 -2.00112e-08 0.0
0.142993 -1.8687e-08 0.0
0.21449 3.00356e-08 0.0
0.285986 1.7521e-07 0.0
0.357483 5.0736e-07 0.0
0.42898 1.17152e-06 0.0
0.500476 2.36455e-06 0.0
0.571972 4.28248e-06 0.0
0.643466 6.9427e-06 0.0
0.714957 9.73999e-06 0.0
0.786442 1.05301e-05 0.0
0.857919 4.21964e-06 0.0
0.929386 -1.75706e-05 0.0
0.0238322 -6.85352e-09 0.0
0.0476643 -1.41359e-08 0.0
0.0953287 -2.31095e-08 0.0
0.119161 -2.29338e-08 0.0
0.166825 -9.51608e-09 0.0
0.190657 6.14142e-09 0.0
0.238322 6.40499e-08 0.0
0.262154 1.11409e-07 0.0
0.309819 2.58806e-07 0.0
0.333651 3.67927e-07 0.0
0.381315 6.82338e-07 0.0
0.405148 9.01686e-07 0.0
0.452812 1.49867e-06 0.0
0.476644 1.89462e-06 0.0
0.524308 2.91454e-06 0.0
0.54814 3.55471e-06 0.0
0.595804 5.09604e-06 0.0
0.619635 5.99157e-06 0.0
0.667297 7.92237e-06 0.0
0.691127 8.88201e-06 0.0
0.738786 1.04084e-05 0.0
0.762615 1.07329e-05 0.0
0.810269 9.59165e-06 0.0
0.834094 7.58552e-06 0.0
0.881742 -8.91989e-07 0.0
0.905564 -8.12883e-06 0.0
0.953211 -3.08708e-05 0.0
0.97704 -4.08566e-05 0.0
1.00089 0.0713698 0.0
1.00097 0.142805 0.0
1.00106 0.214251 0.0
1.00106 0.285752 0.0
1.00097 0.357196 0.0
1.00089 0.428631 0.0
1.00086 0.0237655 0.0
1.00087 0.0475667 0.0
1.00092 0.095179 0.0
1.00094 0.11899 0.0
1.00098 0.166615 0.0
1.001 0.190426 0.0
1.00106 0.238084 0.0
1.00106 0.261916 0.0
1.001 0.309572 0.0
1.00098 0.333384 0.0
1.00094 0.38101 0.0
1.00092 0.404821 0.0
1.00087 0.452433 0.0
1.00086 0.476233 0.0
0.929386 0.500018 0.0
0.857919 0.499996 0.0
0.786442 0.499989 0.0
0.714957 0.49999 0.0
0.643466 0.499993 0.0
0.571972 0.499996 0.0
0.500476 0.499998 0.0
0.42898 0.499999 0.0
0.357483 0.499999 0.0
0.285986 0.5 0.0
0.21449 0.5 0.0
0.142993 0.5 0.0
0.0714965 0.5 0.0
0.977041 0.50004 0.0
0.953211 0.500031 0.0
0.905564 0.500008 0.0
0.881742 0.500001 0.0
0.834094 0.499992 0.0
0.810269 0.49999 0.0
0.762615 0.499989 0.0
0.738786 0.49999 0.0
0.691127 0.499991 0.0
0.667297 0.499992 0.0
0.619635 0.499994 0.0
0.595804 0.499995 0.0
0.54814 0.499996 0.0
0.524308 0.499997 0.0
0.476644 0.499998 0.0
0.452812 0.499998 0.0
0.405148 0.499999 0.0
0.381315 0.499999 0.0
0.333651 0.5 0.0
0.309819 0.5 0.0
0.262154 0.5 0.0
0.238322 0.5 0.0
0.190657 0.5 0.0
0.166825 0.5 0.0
0.119161 0.5 0.0
0.0953287 0.5 0.0
0.0476643 0.5 0.0
0.0238322 0.5 0.0
0 0.428571 0.0
0 0.357143 0.0
0 0.285714 0.0
0 0.214286 0.0
0 0.142857 0.0
0 0.0714286 0.0
0 0.47619 0.0
0 0.452381 0.0
0 0.404762 0.0
0 0.380952 0.0
0 0.333333 0.0
0 0.309524 0.0
0 0.261905 0.0
0 0.238095 0.0
0 0.190476 0.0
0 0.166667 0.0
0 0.119048 0.0
0 0.0952381 0.0
0 0.047619 0.0
0 0.0238095 0.0
0.0714965 0.0714286 0.0
0.0714965 0.142857 0.0
0.0714965 0.214286 0.0
0.0714965 0.285714 0.0
0.0714965 0.357143 0.0
0.0714965 0.428571 0.0
0.142993 0.0714286 0.0
0.142993 0.142857 0.0
0.142993 0.214286 0.0
0.142993 0.285714 0.0
0.142993 0.357143 0.0
0.142993 0.428571 0.0
0.21449 0.0714286 0.0
0.214489 0.142857 0.0
0.214489 0.214286 0.0
0.214489 0.285714 0.0
0.214489 0.357143 0.0
0.21449 0.428571 0.0
0.285986 0.0714287 0.0
0.285986 0.142857 0.0
0.285986 0.214286 0.0
0.285986 0.285714 0.0
0.285986 0.357143 0.0
0.285986 0.428571 0.0
0.357483 0.0714291 0.0
0.357482 0.142858 0.0
0.357482 0.214286 0.0
0.357482 0.285714 0.0
0.357482 0.357142 0.0
0.357483 0.428571 0.0
0.428979 0.0714297 0.0
0.428979 0.142858 0.0
0.428979 0.214286 0.0
0.428979 0.285714 0.0
0.428979 0.357142 0.0
0.428979 0.42857 0.0
0.500475 0.0714308 0.0
0.500475 0.142859 0.0
0.500476 0.214286 0.0
0.500476 0.285714 0.0
0.500475 0.357141 0.0
0.500475 0.428569 0.0
0.571971 0.0714327 0.0
0.571972 0.14286 0.0
0.571973 0.214287 0.0
0.571973 0.285713 0.0
0.571972 0.35714 0.0
0.571971 0.428567 0.0
0.643466 0.0714352 0.0
0.643469 0.142862 0.0
0.643472 0.214288 0.0
0.643472 0.285712 0.0
0.643469 0.357138 0.0
0.643466 0.428565 0.0
0.71496 0.0714379 0.0
0.714967 0.142864 0.0
0.714973 0.214288 0.0
0.714973 0.285712 0.0
0.714967 0.357136 0.0
0.71496 0.428562 0.0
0.786451 0.0714388 0.0
0.786466 0.142865 0.0
0.786477 0.214289 0.0
0.786477 0.285711 0.0
0.786466 0.357135 0.0
0.786451 0.428561 0.0
0.857938 0.0714332 0.0
0.857966 0.142862 0.0
0.857988 0.214288 0.0
0.857988 0.285712 0.0
0.857966 0.357138 0.0
0.857938 0.428567 0.0
0.92942 0.0714134 0.0
0.929465 0.142848 0.0
0.92951 0.214284 0.0
0.92951 0.285716 0.0
0.929465 0.357153 0.0
0.92942 0.428587 0.0
0.0714965 0.0238095 0.0
0.0714965 0.047619 0.0
0.0476644 0.047619 0.0
0.0238322 0.0238095 0.0
0.0476644 0.0238095 0.0
0.0476643 0.0714286 0.0
0.0238322 0.0714286 0.0
0.0238322 0.047619 0.0
0.0714965 0.0952381 0.0
0.0714965 0.119048 0.0
0.0476643 0.119048 0.0
0.0238322 0.0952381 0.0
0.0476643 0.0952381 0.0
0.0476643 0.142857 0.0
0.0238322 0.142857 0.0
0.0238322 0.119048 0.0
0.0714965 0.166667 0.0
0.0714965 0.190476 0.0
0.0476643 0.190476 0.0
0.0238322 0.166667 0.0
0.0476643 0.166667 0.0
0.0476643 0.214286 0.0
0.0238322 0.214286 0.0
0.0238322 0.190476 0.0
0.0714965 0.238095 0.0
0.0714965 0.261905 0.0
0.0476643 0.261905 0.0
0.0238322 0.238095 0.0
0.0476643 0.238095 0.0
0.0476643 0.285714 0.0
0.0238322 0.285714 0.0
0.0238322 0.261905 0.0
0.0714965 0.309524 0.0
0.0714965 0.333333 0.0
0.0476643 0.333333 0.0
0.0238322 0.309524 0.0
0.0476643 0.309524 0.0
0.0476643 0.357143 0.0
0.0238322 0.357143 0.0
0.0238322 0.333333 0.0
0.0714965 0.380952 0.0
0.0714965 0.404762 0.0
0.0476643 0.404762 0.0
0.0238322 0.380952 0.0
0.0476643 0.380952 0.0
0.0476643 0.428571 0.0
0.0238322 0.428571 0.0
0.0238322 0.404762 0.0
0.0714965 0.452381 0.0
0.0714965 0.47619 0.0
0.0476644 0.47619 0.0
0.0238322 0.452381 0.0
0.0476644 0.452381 0.0
0.0238322 0.47619 0.0
0.142993 0.0238095 0.0
0.142993 0.047619 0.0
0.119161 0.047619 0.0
0.0953287 0.0238095 0.0
0.119161 0.0238095 0.0
0.119161 0.0714285 0.0
0.0953287 0.0714285 0.0
0.0953287 0.047619 0.0
0.142993 0.0952381 0.0
0.142993 0.119048 0.0
0.119161 0.119048 0.0
0.0953287 0.0952381 0.0
0.119161 0.0952381 0.0
0.119161 0.142857 0.0
0.0953287 0.142857 0.0
0.0953287 0.119048 0.0
0.142993 0.166667 0.0
0.142993 0.190476 0.0
0.119161 0.190476 0.0
0.0953286 0.166667 0.0
0.119161 0.166667 0.0
0.119161 0.214286 0.0
0.0953286 0.214286 0.0
0.0953286 0.190476 0.0
0.142993 0.238095 0.0
0.142993 0.261905 0.0
0.119161 0.261905 0.0
0.0953286 0.238095 0.0
0.119161 0.238095 0.0
0.119161 0.285714 0.0
0.0953286 0.285714 0.0
0.0953286 0.261905 0.0
0.142993 0.309524 0.0
0.142993 0.333333 0.0
0.119161 0.333333 0.0
0.0953286 0.309524 0.0
0.119161 0.309524 0.0
0.119161 0.357143 0.0
0.0953287 0.357143 0.0
0.0953286 0.333333 0.0
0.142993 0.380952 0.0
0.142993 0.404762 0.0
0.119161 0.404762 0.0
0.0953287 0.380952 0.0
0.119161 0.380952 0.0
0.119161 0.428571 0.0
0.0953287 0.428571 0.0
0.0953287 0.404762 0.0
0.142993 0.452381 0.0
0.142993 0.47619 0.0
0.119161 0.47619 0.0
0.0953287 0.452381 0.0
0.119161 0.452381 0.0
0.0953287 0.47619 0.0
0.21449 0.0238096 0.0
0.21449 0.0476191 0.0
0.190657 0.0476191 0.0
0.166825 0.0238095 0.0
0.190657 0.0238095 0.0
0.190657 0.0714286 0.0
0.166825 0.0714286 0.0
0.166825 0.047619 0.0
0.21449 0.0952381 0.0
0.214489 0.119048 0.0
0.190657 0.119048 0.0
0.166825 0.0952381 0.0
0.190657 0.0952381 0.0
0.190657 0.142857 0.0
0.166825 0.142857 0.0
0.166825 0.119048 0.0
0.214489 0.166667 0.0
0.214489 0.190476 0.0
0.190657 0.190476 0.0
0.166825 0.166667 0.0
0.190657 0.166667 0.0
0.190657 0.214286 0.0
0.166825 0.214286 0.0
0.166825 0.190476 0.0
0.214489 0.238095 0.0
0.214489 0.261905 0.0
0.190657 0.261905 0.0
0.166825 0.238095 0.0
0.190657 0.238095 0.0
0.190657 0.285714 0.0
0.166825 0.285714 0.0
0.166825 0.261905 0.0
0.214489 0.309524 0.0
0.214489 0.333333 0.0
0.190657 0.333333 0.0
0.166825 0.309524 0.0
0.190657 0.309524 0.0
0.190657 0.357143 0.0
0.166825 0.357143 0.0
0.166825 0.333333 0.0
0.214489 0.380952 0.0
0.21449 0.404762 0.0
0.190657 0.404762 0.0
0.166825 0.380952 0.0
0.190657 0.380952 0.0
0.190657 0.428571 0.0
0.166825 0.428571 0.0
0.166825 0.404762 0.0
0.21449 0.452381 0.0
0.21449 0.47619 0.0
0.190657 0.47619 0.0
0.166825 0.452381 0.0
0.190657 0.452381 0.0
0.166825 0.47619 0.0
0.285986 0.0238097 0.0
0.285986 0.0476192 0.0
0.262154 0.0476192 0.0
0.238322 0.0238096 0.0
0.262154 0.0238096 0.0
0.262154 0.0714287 0.0
0.238322 0.0714286 0.0
0.238322 0.0476191 0.0
0.285986 0.0952383 0.0
0.285986 0.119048 0.0
0.262154 0.119048 0.0
0.238322 0.0952382 0.0
0.262154 0.0952382 0.0
0.262154 0.142857 0.0
0.238322 0.142857 0.0
0.238322 0.119048 0.0
0.285986 0.166667 0.0
0.285986 0.190476 0.0
0.262154 0.190476 0.0
0.238322 0.166667 0.0
0.262154 0.166667 0.0
0.262154 0.214286 0.0
0.238322 0.214286 0.0
0.238322 0.190476 0.0
0.285986 0.238095 0.0
0.285986 0.261905 0.0
0.262154 0.261905 0.0
0.238322 0.238095 0.0
0.262154 0.238095 0.0
0.262154 0.285714 0.0
0.238322 0.285714 0.0
0.238322 0.261905 0.0
0.285986 0.309524 0.0
0.285986 0.333333 0.0
0.262154 0.333333 0.0
0.238322 0.309524 0.0
0.262154 0.309524 0.0
0.262154 0.357143 0.0
0.238322 0.357143 0.0
0.238322 0.333333 0.0
0.285986 0.380952 0.0
0.285986 0.404762 0.0
0.262154 0.404762 0.0
0.238322 0.380952 0.0
0.262154 0.380952 0.0
0.262154 0.428571 0.0
0.238322 0.428571 0.0
0.238322 0.404762 0.0
0.285986 0.452381 0.0
0.285986 0.47619 0.0
0.262154 0.47619 0.0
0.238322 0.452381 0.0
0.262154 0.452381 0.0
0.238322 0.47619 0.0
0.357483 0.02381 0.0
0.357483 0.0476195 0.0
0.333651 0.0476194 0.0
0.309818 0.0238098 0.0
0.333651 0.0238099 0.0
0.33365 0.0714289 0.0
0.309818 0.0714288 0.0
0.309818 0.0476193 0.0
0.357483 0.0952386 0.0
0.357482 0.119048 0.0
0.33365 0.119048 0.0
0.309818 0.0952383 0.0
0.33365 0.0952384 0.0
0.33365 0.142857 0.0
0.309818 0.142857 0.0
0.309818 0.119048 0.0
0.357482 0.166667 0.0
0.357482 0.190476 0.0
0.33365 0.190476 0.0
0.309818 0.166667 0.0
0.33365 0.166667 0.0
0.33365 0.214286 0.0
0.309818 0.214286 0.0
0.309818 0.190476 0.0
0.357482 0.238095 0.0
0.357482 0.261905 0.0
0.33365 0.261905 0.0
0.309818 0.238095 0.0
0.33365 0.238095 0.0
0.33365 0.285714 0.0
0.309818 0.285714 0.0
0.309818 0.261905 0.0
0.357482 0.309524 0.0
0.357482 0.333333 0.0
0.33365 0.333333 0.0
0.309818 0.309524 0.0
0.33365 0.309524 0.0
0.33365 0.357143 0.0
0.309818 0.357143 0.0
0.309818 0.333333 0.0
0.357482 0.380952 0.0
0.357483 0.404761 0.0
0.33365 0.404762 0.0
0.309818 0.380952 0.0
0.33365 0.380952 0.0
0.33365 0.428571 0.0
0.309818 0.428571 0.0
0.309818 0.404762 0.0
0.357483 0.45238 0.0
0.357483 0.47619 0.0
0.333651 0.47619 0.0
0.309818 0.452381 0.0
0.333651 0.452381 0.0
0.309818 0.47619 0.0
0.428979 0.0238107 0.0
0.428979 0.0476202 0.0
0.405147 0.0476199 0.0
0.381315 0.0238102 0.0
0.405147 0.0238104 0.0
0.405147 0.0714294 0.0
0.381315 0.0714292 0.0
0.381315 0.0476197 0.0
0.428979 0.0952392 0.0
0.428979 0.119049 0.0
0.405147 0.119048 0.0
0.381315 0.0952387 0.0
0.405147 0.0952389 0.0
0.405147 0.142858 0.0
0.381315 0.142858 0.0
0.381315 0.119048 0.0
0.428979 0.166667 0.0
0.428979 0.190477 0.0
0.405147 0.190477 0.0
0.381315 0.166667 0.0
0.405147 0.166667 0.0
0.405147 0.214286 0.0
0.381314 0.214286 0.0
0.381314 0.190477 0.0
0.428979 0.238095 0.0
0.428979 0.261905 0.0
0.405147 0.261905 0.0
0.381314 0.238095 0.0
0.405147 0.238095 0.0
0.405147 0.285714 0.0
0.381314 0.285714 0.0
0.381314 0.261905 0.0
0.428979 0.309523 0.0
0.428979 0.333333 0.0
0.405147 0.333333 0.0
0.381314 0.309523 0.0
0.405147 0.309523 0.0
0.405147 0.357142 0.0
0.381315 0.357142 0.0
0.381315 0.333333 0.0
0.428979 0.380951 0.0
0.428979 0.404761 0.0
0.405147 0.404761 0.0
0.381315 0.380952 0.0
0.405147 0.380952 0.0
0.405147 0.428571 0.0
0.381315 0.428571 0.0
0.381315 0.404761 0.0
0.428979 0.45238 0.0
0.428979 0.476189 0.0
0.405147 0.47619 0.0
0.381315 0.45238 0.0
0.405147 0.45238 0.0
0.381315 0.47619 0.0
0.500476 0.0238119 0.0
0.500475 0.0476214 0.0
0.476643 0.0476209 0.0
0.452812 0.023811 0.0
0.476644 0.0238114 0.0
0.476643 0.0714304 0.0
0.452811 0.07143 0.0
0.452811 0.0476205 0.0
0.500475 0.0952402 0.0
0.500475 0.11905 0.0
0.476643 0.119049 0.0
0.452811 0.0952395 0.0
0.476643 0.0952398 0.0
0.476643 0.142859 0.0
0.452811 0.142858 0.0
0.452811 0.119049 0.0
0.500475 0.166668 0.0
0.500476 0.190477 0.0
0.476643 0.190477 0.0
0.452811 0.166668 0.0
0.476643 0.166668 0.0
0.476643 0.214286 0.0
0.452811 0.214286 0.0
0.452811 0.190477 0.0
0.500476 0.238095 0.0
0.500476 0.261905 0.0
0.476643 0.261905 0.0
0.452811 0.238095 0.0
0.476643 0.238095 0.0
0.476643 0.285714 0.0
0.452811 0.285714 0.0
0.452811 0.261905 0.0
0.500476 0.309523 0.0
0.500475 0.333332 0.0
0.476643 0.333332 0.0
0.452811 0.309523 0.0
0.476643 0.309523 0.0
0.476643 0.357141 0.0
0.452811 0.357142 0.0
0.452811 0.333332 0.0
0.500475 0.38095 0.0
0.500475 0.40476 0.0
0.476643 0.40476 0.0
0.452811 0.380951 0.0
0.476643 0.380951 0.0
0.476643 0.42857 0.0
0.452811 0.42857 0.0
0.452811 0.404761 0.0
0.500475 0.452379 0.0
0.500476 0.476188 0.0
0.476644 0.476189 0.0
0.452811 0.452379 0.0
0.476643 0.452379 0.0
0.452812 0.476189 0.0
0.571971 0.0238138 0.0
0.571971 0.0476233 0.0
0.548139 0.0476226 0.0
0.524308 0.0238124 0.0
0.54814 0.0238131 0.0
0.548139 0.071432 0.0
0.524307 0.0714314 0.0
0.524307 0.0476219 0.0
0.571971 0.095242 0.0
0.571972 0.119051 0.0
0.54814 0.119051 0.0
0.524307 0.0952407 0.0
0.548139 0.0952413 0.0
0.54814 0.14286 0.0
0.524308 0.142859 0.0
0.524307 0.11905 0.0
0.571972 0.166669 0.0
0.571973 0.190478 0.0
0.54814 0.190478 0.0
0.524308 0.166668 0.0
0.54814 0.166669 0.0
0.548141 0.214287 0.0
0.524308 0.214287 0.0
0.524308 0.190477 0.0
0.571973 0.238096 0.0
0.571973 0.261904 0.0
0.548141 0.261904 0.0
0.524308 0.238096 0.0
0.548141 0.238096 0.0
0.548141 0.285713 0.0
0.524308 0.285713 0.0
0.524308 0.261904 0.0
0.571973 0.309522 0.0
0.571972 0.333331 0.0
0.54814 0.333331 0.0
0.524308 0.309523 0.0
0.54814 0.309522 0.0
0.54814 0.35714 0.0
0.524308 0.357141 0.0
0.524308 0.333332 0.0
0.571972 0.380949 0.0
0.571971 0.404758 0.0
0.548139 0.404759 0.0
0.524307 0.38095 0.0
0.54814 0.380949 0.0
0.548139 0.428568 0.0
0.524307 0.428569 0.0
0.524307 0.404759 0.0
0.571971 0.452377 0.0
0.571971 0.476186 0.0
0.54814 0.476187 0.0
0.524307 0.452378 0.0
0.548139 0.452377 0.0
0.524308 0.476188 0.0
0.643466 0.0238165 0.0
0.643466 0.0476259 0.0
0.619634 0.047625 0.0
0.595803 0.0238146 0.0
0.619634 0.0238155 0.0
0.619635 0.0714343 0.0
0.595803 0.0714335 0.0
0.595803 0.0476241 0.0
0.643467 0.0952444 0.0
0.643468 0.119053 0.0
0.619636 0.119053 0.0
0.595803 0.0952427 0.0
0.619635 0.0952435 0.0
0.619637 0.142861 0.0
0.595804 0.142861 0.0
0.595804 0.119052 0.0
0.64347 0.166671 0.0
0.643471 0.190479 0.0
0.619638 0.190479 0.0
0.595805 0.16667 0.0
0.619637 0.16667 0.0
0.619639 0.214287 0.0
0.595806 0.214287 0.0
0.595805 0.190478 0.0
0.643472 0.238096 0.0
0.643472 0.261904 0.0
0.619639 0.261904 0.0
0.595806 0.238096 0.0
0.619639 0.238096 0.0
0.619639 0.285713 0.0
0.595806 0.285713 0.0
0.595806 0.261904 0.0
0.643471 0.309521 0.0
0.64347 0.333329 0.0
0.619637 0.33333 0.0
0.595805 0.309522 0.0
0.619638 0.309521 0.0
0.619637 0.357139 0.0
0.595804 0.357139 0.0
0.595805 0.33333 0.0
0.643468 0.380947 0.0
0.643467 0.404756 0.0
0.619635 0.404756 0.0
0.595804 0.380948 0.0
0.619636 0.380947 0.0
0.619635 0.428566 0.0
0.595803 0.428567 0.0
0.595803 0.404757 0.0
0.643466 0.452374 0.0
0.643466 0.476184 0.0
0.619634 0.476184 0.0
0.595803 0.452376 0.0
0.619634 0.452375 0.0
0.595803 0.476185 0.0
0.714957 0.0238192 0.0
0.714958 0.0476287 0.0
0.691127 0.0476278 0.0
0.667297 0.0238174 0.0
0.691127 0.0238184 0.0
0.691129 0.0714371 0.0
0.667297 0.0714362 0.0
0.667297 0.0476269 0.0
0.714962 0.0952469 0.0
0.714964 0.119056 0.0
0.691132 0.119055 0.0
0.667299 0.0952453 0.0
0.69113 0.0952461 0.0
0.691134 0.142864 0.0
0.667302 0.142863 0.0
0.6673 0.119054 0.0
0.714969 0.166673 0.0
0.714971 0.190481 0.0
0.691138 0.19048 0.0
0.667303 0.166671 0.0
0.691136 0.166672 0.0
0.691139 0.214288 0.0
0.667305 0.214288 0.0
0.667304 0.19048 0.0
0.714973 0.238096 0.0
0.714973 0.261904 0.0
0.691139 0.261904 0.0
0.667306 0.238096 0.0
0.691139 0.238096 0.0
0.691139 0.285712 0.0
0.667305 0.285712 0.0
0.667306 0.261904 0.0
0.714971 0.309519 0.0
0.714969 0.333327 0.0
0.691136 0.333328 0.0
0.667304 0.30952 0.0
0.691138 0.30952 0.0
0.691134 0.357136 0.0
0.667302 0.357137 0.0
0.667303 0.333329 0.0
0.714964 0.380944 0.0
0.714962 0.404753 0.0
0.69113 0.404754 0.0
0.6673 0.380946 0.0
0.691132 0.380945 0.0
0.691129 0.428563 0.0
0.667297 0.428564 0.0
0.667299 0.404755 0.0
0.714958 0.452371 0.0
0.714957 0.476181 0.0
0.691127 0.476182 0.0
0.667297 0.452373 0.0
0.691127 0.452372 0.0
0.667297 0.476183 0.0
0.786444 0.02382 0.0
0.786447 0.0476295 0.0
0.762618 0.0476297 0.0
0.738787 0.0238199 0.0
0.762616 0.0238202 0.0
0.762621 0.0714389 0.0
0.73879 0.0714386 0.0
0.738788 0.0476293 0.0
0.786456 0.0952479 0.0
0.786461 0.119057 0.0
0.762629 0.119057 0.0
0.738793 0.0952476 0.0
0.762625 0.0952479 0.0
0.762633 0.142865 0.0
0.7388 0.142865 0.0
0.738796 0.119056 0.0
0.786471 0.166673 0.0
0.786475 0.190481 0.0
0.76264 0.190481 0.0
0.738803 0.166673 0.0
0.762636 0.166673 0.0
0.762642 0.214289 0.0
0.738807 0.214289 0.0
0.738805 0.190481 0.0
0.786479 0.238096 0.0
0.786479 0.261904 0.0
0.762643 0.261904 0.0
0.738808 0.238096 0.0
0.762643 0.238096 0.0
0.762642 0.285711 0.0
0.738807 0.285711 0.0
0.738808 0.261904 0.0
0.786475 0.309519 0.0
0.786471 0.333327 0.0
0.762637 0.333327 0.0
0.738805 0.309519 0.0
0.76264 0.309519 0.0
0.762633 0.357135 0.0
0.7388 0.357135 0.0
0.738803 0.333327 0.0
0.786461 0.380943 0.0
0.786456 0.404752 0.0
0.762625 0.404752 0.0
0.738796 0.380944 0.0
0.762629 0.380943 0.0
0.762621 0.428561 0.0
0.73879 0.428561 0.0
0.738793 0.404752 0.0
0.786447 0.452371 0.0
0.786444 0.47618 0.0
0.762616 0.47618 0.0
0.738788 0.452371 0.0
0.762618 0.45237 0.0
0.738787 0.47618 0.0
0.857924 0.0238138 0.0
0.85793 0.0476234 0.0
0.834103 0.0476267 0.0
0.810271 0.0238191 0.0
0.834098 0.0238171 0.0
0.83411 0.0714362 0.0
0.81028 0.071438 0.0
0.810275 0.0476286 0.0
0.857947 0.095243 0.0
0.857957 0.119053 0.0
0.834125 0.119055 0.0
0.810286 0.0952472 0.0
0.834117 0.0952456 0.0
0.834133 0.142864 0.0
0.810299 0.142865 0.0
0.810293 0.119056 0.0
0.857975 0.166671 0.0
0.857983 0.19048 0.0
0.834146 0.190481 0.0
0.810305 0.166673 0.0
0.83414 0.166673 0.0
0.834151 0.214289 0.0
0.810314 0.214289 0.0
0.81031 0.190481 0.0
0.857992 0.238096 0.0
0.857992 0.261904 0.0
0.834153 0.261904 0.0
0.810315 0.238096 0.0
0.834153 0.238096 0.0
0.834151 0.285711 0.0
0.810314 0.285711 0.0
0.810315 0.261904 0.0
0.857983 0.30952 0.0
0.857975 0.333329 0.0
0.83414 0.333327 0.0
0.81031 0.309519 0.0
0.834146 0.309519 0.0
0.834133 0.357136 0.0
0.810299 0.357135 0.0
0.810305 0.333327 0.0
0.857957 0.380947 0.0
0.857947 0.404757 0.0
0.834117 0.404754 0.0
0.810293 0.380944 0.0
0.834125 0.380945 0.0
0.83411 0.428564 0.0
0.81028 0.428562 0.0
0.810286 0.404753 0.0
0.85793 0.452377 0.0
0.857924 0.476186 0.0
0.834098 0.476183 0.0
0.810275 0.452371 0.0
0.834103 0.452373 0.0
0.810271 0.476181 0.0
0.929397 0.0237918 0.0
0.929407 0.0476023 0.0
0.905583 0.0476115 0.0
0.881749 0.0238087 0.0
0.905573 0.0238014 0.0
0.905594 0.071422 0.0
0.881766 0.0714285 0.0
0.881757 0.0476185 0.0
0.929434 0.0952245 0.0
0.92945 0.119036 0.0
0.905619 0.119044 0.0
0.881777 0.0952388 0.0
0.905606 0.0952328 0.0
0.905632 0.142855 0.0
0.881799 0.142859 0.0
0.881788 0.119049 0.0
0.929481 0.16666 0.0
0.929497 0.190472 0.0
0.905658 0.190476 0.0
0.88181 0.166669 0.0
0.905646 0.166665 0.0
0.905668 0.214286 0.0
0.881828 0.214288 0.0
0.88182 0.190479 0.0
0.929517 0.238095 0.0
0.929517 0.261905 0.0
0.905673 0.261905 0.0
0.881832 0.238096 0.0
0.905673 0.238095 0.0
0.905668 0.285714 0.0
0.881828 0.285712 0.0
0.881832 0.261904 0.0
0.929497 0.309528 0.0
0.929481 0.33334 0.0
0.905646 0.333334 0.0
0.88182 0.309521 0.0
0.905658 0.309524 0.0
0.905633 0.357145 0.0
0.881799 0.357141 0.0
0.88181 0.333331 0.0
0.92945 0.380964 0.0
0.929434 0.404776 0.0
0.905606 0.404767 0.0
0.881788 0.380951 0.0
0.905619 0.380956 0.0
0.905593 0.428578 0.0
0.881766 0.428571 0.0
0.881777 0.404761 0.0
0.929407 0.452397 0.0
0.929397 0.476208 0.0
0.905573 0.476199 0.0
0.881757 0.452382 0.0
0.905583 0.452388 0.0
0.881749 0.476191 0.0
0.977052 0.0475798 0.0
0.95322 0.0237804 0.0